s 0.000000000 _1_ AGT  --- 1 message 209 [0 0 0 0] ------- [1:42 -1:42 10 0] 
s 0.000000000 _2_ AGT  --- 2 message 209 [0 0 0 0] ------- [2:42 -1:42 10 0] 
s 0.000000000 _3_ AGT  --- 3 message 209 [0 0 0 0] ------- [3:42 -1:42 10 0] 
s 0.000000000 _4_ AGT  --- 4 message 209 [0 0 0 0] ------- [4:42 -1:42 10 0] 
s 0.000000000 _5_ AGT  --- 5 message 209 [0 0 0 0] ------- [5:42 -1:42 10 0] 
s 0.000000000 _6_ AGT  --- 6 message 209 [0 0 0 0] ------- [6:42 -1:42 10 0] 
s 0.000000000 _7_ AGT  --- 7 message 209 [0 0 0 0] ------- [7:42 -1:42 10 0] 
s 0.000000000 _8_ AGT  --- 8 message 209 [0 0 0 0] ------- [8:42 -1:42 10 0] 
s 0.000000000 _9_ AGT  --- 9 message 209 [0 0 0 0] ------- [9:42 -1:42 10 0] 
s 0.000000000 _10_ AGT  --- 10 message 209 [0 0 0 0] ------- [10:42 -1:42 10 0] 
s 0.000000000 _11_ AGT  --- 11 message 209 [0 0 0 0] ------- [11:42 -1:42 10 0] 
s 0.000000000 _12_ AGT  --- 12 message 209 [0 0 0 0] ------- [12:42 -1:42 10 0] 
s 0.000000000 _13_ AGT  --- 13 message 209 [0 0 0 0] ------- [13:42 -1:42 10 0] 
s 0.000000000 _14_ AGT  --- 14 message 209 [0 0 0 0] ------- [14:42 -1:42 10 0] 
s 0.000000000 _15_ AGT  --- 15 message 209 [0 0 0 0] ------- [15:42 -1:42 10 0] 
s 0.000000000 _16_ AGT  --- 16 message 209 [0 0 0 0] ------- [16:42 -1:42 10 0] 
s 0.000000000 _17_ AGT  --- 17 message 209 [0 0 0 0] ------- [17:42 -1:42 10 0] 
s 0.000000000 _18_ AGT  --- 18 message 209 [0 0 0 0] ------- [18:42 -1:42 10 0] 
s 0.000000000 _19_ AGT  --- 19 message 209 [0 0 0 0] ------- [19:42 -1:42 10 0] 
s 0.000000000 _20_ AGT  --- 20 message 209 [0 0 0 0] ------- [20:42 -1:42 10 0] 
s 0.000000000 _21_ AGT  --- 21 message 209 [0 0 0 0] ------- [21:42 -1:42 10 0] 
s 0.000000000 _22_ AGT  --- 22 message 209 [0 0 0 0] ------- [22:42 -1:42 10 0] 
s 0.000000000 _23_ AGT  --- 23 message 209 [0 0 0 0] ------- [23:42 -1:42 10 0] 
s 0.000000000 _24_ AGT  --- 24 message 209 [0 0 0 0] ------- [24:42 -1:42 10 0] 
s 0.020069690 _2_ MAC  --- 2 message 209 [0 2000000 ffff0008 0] ------- [2:42 -1:42 10 0] 
r 0.020478694 _1_ MAC  --- 2 message 209 [0 2000000 ffff0008 0] ------- [2:42 -1:42 10 0] 
r 0.020478694 _7_ MAC  --- 2 message 209 [0 2000000 ffff0008 0] ------- [2:42 -1:42 10 0] 
r 0.020478694 _3_ MAC  --- 2 message 209 [0 2000000 ffff0008 0] ------- [2:42 -1:42 10 0] 
r 0.020478694 _1_ AGT  --- 2 message 209 [0 2000000 ffff0008 0] ------- [2:42 -1:42 10 0] 
s 0.020478694 _1_ AGT  --- 2 message 209 [0 2000000 ffff0008 0] ------- [2:42 -1:42 9 0] 
r 0.020478694 _7_ AGT  --- 2 message 209 [0 2000000 ffff0008 0] ------- [2:42 -1:42 10 0] 
s 0.020478694 _7_ AGT  --- 2 message 209 [0 2000000 ffff0008 0] ------- [2:42 -1:42 9 0] 
r 0.020478694 _3_ AGT  --- 2 message 209 [0 2000000 ffff0008 0] ------- [2:42 -1:42 10 0] 
s 0.020478694 _3_ AGT  --- 2 message 209 [0 2000000 ffff0008 0] ------- [2:42 -1:42 9 0] 
r 0.020478695 _6_ MAC  --- 2 message 209 [0 2000000 ffff0008 0] ------- [2:42 -1:42 10 0] 
r 0.020478695 _8_ MAC  --- 2 message 209 [0 2000000 ffff0008 0] ------- [2:42 -1:42 10 0] 
r 0.020478695 _6_ AGT  --- 2 message 209 [0 2000000 ffff0008 0] ------- [2:42 -1:42 10 0] 
s 0.020478695 _6_ AGT  --- 2 message 209 [0 2000000 ffff0008 0] ------- [2:42 -1:42 9 0] 
r 0.020478695 _8_ AGT  --- 2 message 209 [0 2000000 ffff0008 0] ------- [2:42 -1:42 10 0] 
s 0.020478695 _8_ AGT  --- 2 message 209 [0 2000000 ffff0008 0] ------- [2:42 -1:42 9 0] 
r 0.020478697 _0_ MAC  --- 2 message 209 [0 2000000 ffff0008 0] ------- [2:42 -1:42 10 0] 
r 0.020478697 _12_ MAC  --- 2 message 209 [0 2000000 ffff0008 0] ------- [2:42 -1:42 10 0] 
r 0.020478697 _4_ MAC  --- 2 message 209 [0 2000000 ffff0008 0] ------- [2:42 -1:42 10 0] 
r 0.020478697 _0_ AGT  --- 2 message 209 [0 2000000 ffff0008 0] ------- [2:42 -1:42 10 0] 
r 0.020478697 _12_ AGT  --- 2 message 209 [0 2000000 ffff0008 0] ------- [2:42 -1:42 10 0] 
s 0.020478697 _12_ AGT  --- 2 message 209 [0 2000000 ffff0008 0] ------- [2:42 -1:42 9 0] 
r 0.020478697 _4_ AGT  --- 2 message 209 [0 2000000 ffff0008 0] ------- [2:42 -1:42 10 0] 
s 0.020478697 _4_ AGT  --- 2 message 209 [0 2000000 ffff0008 0] ------- [2:42 -1:42 9 0] 
r 0.020478698 _11_ MAC  --- 2 message 209 [0 2000000 ffff0008 0] ------- [2:42 -1:42 10 0] 
r 0.020478698 _5_ MAC  --- 2 message 209 [0 2000000 ffff0008 0] ------- [2:42 -1:42 10 0] 
r 0.020478698 _13_ MAC  --- 2 message 209 [0 2000000 ffff0008 0] ------- [2:42 -1:42 10 0] 
r 0.020478698 _9_ MAC  --- 2 message 209 [0 2000000 ffff0008 0] ------- [2:42 -1:42 10 0] 
r 0.020478698 _11_ AGT  --- 2 message 209 [0 2000000 ffff0008 0] ------- [2:42 -1:42 10 0] 
s 0.020478698 _11_ AGT  --- 2 message 209 [0 2000000 ffff0008 0] ------- [2:42 -1:42 9 0] 
r 0.020478698 _5_ AGT  --- 2 message 209 [0 2000000 ffff0008 0] ------- [2:42 -1:42 10 0] 
s 0.020478698 _5_ AGT  --- 2 message 209 [0 2000000 ffff0008 0] ------- [2:42 -1:42 9 0] 
r 0.020478698 _13_ AGT  --- 2 message 209 [0 2000000 ffff0008 0] ------- [2:42 -1:42 10 0] 
s 0.020478698 _13_ AGT  --- 2 message 209 [0 2000000 ffff0008 0] ------- [2:42 -1:42 9 0] 
r 0.020478698 _9_ AGT  --- 2 message 209 [0 2000000 ffff0008 0] ------- [2:42 -1:42 10 0] 
s 0.020478698 _9_ AGT  --- 2 message 209 [0 2000000 ffff0008 0] ------- [2:42 -1:42 9 0] 
r 0.020478700 _10_ MAC  --- 2 message 209 [0 2000000 ffff0008 0] ------- [2:42 -1:42 10 0] 
r 0.020478700 _14_ MAC  --- 2 message 209 [0 2000000 ffff0008 0] ------- [2:42 -1:42 10 0] 
r 0.020478700 _10_ AGT  --- 2 message 209 [0 2000000 ffff0008 0] ------- [2:42 -1:42 10 0] 
s 0.020478700 _10_ AGT  --- 2 message 209 [0 2000000 ffff0008 0] ------- [2:42 -1:42 9 0] 
r 0.020478700 _14_ AGT  --- 2 message 209 [0 2000000 ffff0008 0] ------- [2:42 -1:42 10 0] 
s 0.020478700 _14_ AGT  --- 2 message 209 [0 2000000 ffff0008 0] ------- [2:42 -1:42 9 0] 
r 0.020478700 _17_ MAC  --- 2 message 209 [0 2000000 ffff0008 0] ------- [2:42 -1:42 10 0] 
r 0.020478700 _17_ AGT  --- 2 message 209 [0 2000000 ffff0008 0] ------- [2:42 -1:42 10 0] 
s 0.020478700 _17_ AGT  --- 2 message 209 [0 2000000 ffff0008 0] ------- [2:42 -1:42 9 0] 
r 0.020478701 _16_ MAC  --- 2 message 209 [0 2000000 ffff0008 0] ------- [2:42 -1:42 10 0] 
r 0.020478701 _18_ MAC  --- 2 message 209 [0 2000000 ffff0008 0] ------- [2:42 -1:42 10 0] 
r 0.020478701 _16_ AGT  --- 2 message 209 [0 2000000 ffff0008 0] ------- [2:42 -1:42 10 0] 
s 0.020478701 _16_ AGT  --- 2 message 209 [0 2000000 ffff0008 0] ------- [2:42 -1:42 9 0] 
r 0.020478701 _18_ AGT  --- 2 message 209 [0 2000000 ffff0008 0] ------- [2:42 -1:42 10 0] 
s 0.020478701 _18_ AGT  --- 2 message 209 [0 2000000 ffff0008 0] ------- [2:42 -1:42 9 0] 
r 0.020478702 _15_ MAC  --- 2 message 209 [0 2000000 ffff0008 0] ------- [2:42 -1:42 10 0] 
r 0.020478702 _19_ MAC  --- 2 message 209 [0 2000000 ffff0008 0] ------- [2:42 -1:42 10 0] 
r 0.020478702 _15_ AGT  --- 2 message 209 [0 2000000 ffff0008 0] ------- [2:42 -1:42 10 0] 
s 0.020478702 _15_ AGT  --- 2 message 209 [0 2000000 ffff0008 0] ------- [2:42 -1:42 9 0] 
r 0.020478702 _19_ AGT  --- 2 message 209 [0 2000000 ffff0008 0] ------- [2:42 -1:42 10 0] 
s 0.020478702 _19_ AGT  --- 2 message 209 [0 2000000 ffff0008 0] ------- [2:42 -1:42 9 0] 
r 0.020478704 _22_ MAC  --- 2 message 209 [0 2000000 ffff0008 0] ------- [2:42 -1:42 10 0] 
r 0.020478704 _22_ AGT  --- 2 message 209 [0 2000000 ffff0008 0] ------- [2:42 -1:42 10 0] 
s 0.020478704 _22_ AGT  --- 2 message 209 [0 2000000 ffff0008 0] ------- [2:42 -1:42 9 0] 
r 0.020478704 _21_ MAC  --- 2 message 209 [0 2000000 ffff0008 0] ------- [2:42 -1:42 10 0] 
r 0.020478704 _23_ MAC  --- 2 message 209 [0 2000000 ffff0008 0] ------- [2:42 -1:42 10 0] 
r 0.020478704 _21_ AGT  --- 2 message 209 [0 2000000 ffff0008 0] ------- [2:42 -1:42 10 0] 
s 0.020478704 _21_ AGT  --- 2 message 209 [0 2000000 ffff0008 0] ------- [2:42 -1:42 9 0] 
r 0.020478704 _23_ AGT  --- 2 message 209 [0 2000000 ffff0008 0] ------- [2:42 -1:42 10 0] 
s 0.020478704 _23_ AGT  --- 2 message 209 [0 2000000 ffff0008 0] ------- [2:42 -1:42 9 0] 
r 0.020478705 _20_ MAC  --- 2 message 209 [0 2000000 ffff0008 0] ------- [2:42 -1:42 10 0] 
r 0.020478705 _24_ MAC  --- 2 message 209 [0 2000000 ffff0008 0] ------- [2:42 -1:42 10 0] 
r 0.020478705 _20_ AGT  --- 2 message 209 [0 2000000 ffff0008 0] ------- [2:42 -1:42 10 0] 
s 0.020478705 _20_ AGT  --- 2 message 209 [0 2000000 ffff0008 0] ------- [2:42 -1:42 9 0] 
r 0.020478705 _24_ AGT  --- 2 message 209 [0 2000000 ffff0008 0] ------- [2:42 -1:42 10 0] 
s 0.020478705 _24_ AGT  --- 2 message 209 [0 2000000 ffff0008 0] ------- [2:42 -1:42 9 0] 
s 0.021213125 _21_ MAC  --- 21 message 209 [0 15000000 ffff0008 0] ------- [21:42 -1:42 10 0] 
s 0.021384533 _19_ MAC  --- 19 message 209 [0 13000000 ffff0008 0] ------- [19:42 -1:42 10 0] 
s 0.021620491 _15_ MAC  --- 15 message 209 [0 f000000 ffff0008 0] ------- [15:42 -1:42 10 0] 
r 0.021622129 _16_ MAC  --- 21 message 209 [0 15000000 ffff0008 0] ------- [21:42 -1:42 10 0] 
r 0.021622129 _20_ MAC  --- 21 message 209 [0 15000000 ffff0008 0] ------- [21:42 -1:42 10 0] 
r 0.021622129 _16_ AGT  --- 21 message 209 [0 15000000 ffff0008 0] ------- [21:42 -1:42 10 0] 
s 0.021622129 _16_ AGT  --- 21 message 209 [0 15000000 ffff0008 0] ------- [21:42 -1:42 9 0] 
r 0.021622129 _20_ AGT  --- 21 message 209 [0 15000000 ffff0008 0] ------- [21:42 -1:42 10 0] 
s 0.021622129 _20_ AGT  --- 21 message 209 [0 15000000 ffff0008 0] ------- [21:42 -1:42 9 0] 
s 0.022119918 _9_ MAC  --- 9 message 209 [0 9000000 ffff0008 0] ------- [9:42 -1:42 10 0] 
s 0.022217833 _7_ MAC  --- 7 message 209 [0 7000000 ffff0008 0] ------- [7:42 -1:42 10 0] 
s 0.022357725 _5_ MAC  --- 5 message 209 [0 5000000 ffff0008 0] ------- [5:42 -1:42 10 0] 
s 0.023639292 _22_ MAC  --- 22 message 209 [0 16000000 ffff0008 0] ------- [22:42 -1:42 10 0] 
s 0.023942319 _18_ MAC  --- 18 message 209 [0 12000000 ffff0008 0] ------- [18:42 -1:42 10 0] 
s 0.024047032 _16_ MAC  --- 16 message 209 [0 10000000 ffff0008 0] ------- [16:42 -1:42 10 0] 
r 0.024048295 _17_ MAC  --- 22 message 209 [0 16000000 ffff0008 0] ------- [22:42 -1:42 10 0] 
r 0.024048295 _21_ MAC  --- 22 message 209 [0 16000000 ffff0008 0] ------- [22:42 -1:42 10 0] 
r 0.024048295 _23_ MAC  --- 22 message 209 [0 16000000 ffff0008 0] ------- [22:42 -1:42 10 0] 
r 0.024048295 _17_ AGT  --- 22 message 209 [0 16000000 ffff0008 0] ------- [22:42 -1:42 10 0] 
s 0.024048295 _17_ AGT  --- 22 message 209 [0 16000000 ffff0008 0] ------- [22:42 -1:42 9 0] 
r 0.024048295 _21_ AGT  --- 22 message 209 [0 16000000 ffff0008 0] ------- [22:42 -1:42 10 0] 
s 0.024048295 _21_ AGT  --- 22 message 209 [0 16000000 ffff0008 0] ------- [22:42 -1:42 9 0] 
r 0.024048295 _23_ AGT  --- 22 message 209 [0 16000000 ffff0008 0] ------- [22:42 -1:42 10 0] 
s 0.024048295 _23_ AGT  --- 22 message 209 [0 16000000 ffff0008 0] ------- [22:42 -1:42 9 0] 
r 0.024048299 _12_ MAC  --- 22 message 209 [0 16000000 ffff0008 0] ------- [22:42 -1:42 10 0] 
r 0.024048299 _20_ MAC  --- 22 message 209 [0 16000000 ffff0008 0] ------- [22:42 -1:42 10 0] 
r 0.024048299 _24_ MAC  --- 22 message 209 [0 16000000 ffff0008 0] ------- [22:42 -1:42 10 0] 
r 0.024048299 _12_ AGT  --- 22 message 209 [0 16000000 ffff0008 0] ------- [22:42 -1:42 10 0] 
s 0.024048299 _12_ AGT  --- 22 message 209 [0 16000000 ffff0008 0] ------- [22:42 -1:42 9 0] 
r 0.024048299 _20_ AGT  --- 22 message 209 [0 16000000 ffff0008 0] ------- [22:42 -1:42 10 0] 
s 0.024048299 _20_ AGT  --- 22 message 209 [0 16000000 ffff0008 0] ------- [22:42 -1:42 9 0] 
r 0.024048299 _24_ AGT  --- 22 message 209 [0 16000000 ffff0008 0] ------- [22:42 -1:42 10 0] 
s 0.024048299 _24_ AGT  --- 22 message 209 [0 16000000 ffff0008 0] ------- [22:42 -1:42 9 0] 
r 0.024048299 _11_ MAC  --- 22 message 209 [0 16000000 ffff0008 0] ------- [22:42 -1:42 10 0] 
r 0.024048299 _15_ MAC  --- 22 message 209 [0 16000000 ffff0008 0] ------- [22:42 -1:42 10 0] 
r 0.024048299 _13_ MAC  --- 22 message 209 [0 16000000 ffff0008 0] ------- [22:42 -1:42 10 0] 
r 0.024048299 _19_ MAC  --- 22 message 209 [0 16000000 ffff0008 0] ------- [22:42 -1:42 10 0] 
r 0.024048299 _11_ AGT  --- 22 message 209 [0 16000000 ffff0008 0] ------- [22:42 -1:42 10 0] 
s 0.024048299 _11_ AGT  --- 22 message 209 [0 16000000 ffff0008 0] ------- [22:42 -1:42 9 0] 
r 0.024048299 _15_ AGT  --- 22 message 209 [0 16000000 ffff0008 0] ------- [22:42 -1:42 10 0] 
s 0.024048299 _15_ AGT  --- 22 message 209 [0 16000000 ffff0008 0] ------- [22:42 -1:42 9 0] 
r 0.024048299 _13_ AGT  --- 22 message 209 [0 16000000 ffff0008 0] ------- [22:42 -1:42 10 0] 
s 0.024048299 _13_ AGT  --- 22 message 209 [0 16000000 ffff0008 0] ------- [22:42 -1:42 9 0] 
r 0.024048299 _19_ AGT  --- 22 message 209 [0 16000000 ffff0008 0] ------- [22:42 -1:42 10 0] 
s 0.024048299 _19_ AGT  --- 22 message 209 [0 16000000 ffff0008 0] ------- [22:42 -1:42 9 0] 
r 0.024048301 _10_ MAC  --- 22 message 209 [0 16000000 ffff0008 0] ------- [22:42 -1:42 10 0] 
r 0.024048301 _14_ MAC  --- 22 message 209 [0 16000000 ffff0008 0] ------- [22:42 -1:42 10 0] 
r 0.024048301 _10_ AGT  --- 22 message 209 [0 16000000 ffff0008 0] ------- [22:42 -1:42 10 0] 
s 0.024048301 _10_ AGT  --- 22 message 209 [0 16000000 ffff0008 0] ------- [22:42 -1:42 9 0] 
r 0.024048301 _14_ AGT  --- 22 message 209 [0 16000000 ffff0008 0] ------- [22:42 -1:42 10 0] 
s 0.024048301 _14_ AGT  --- 22 message 209 [0 16000000 ffff0008 0] ------- [22:42 -1:42 9 0] 
r 0.024048302 _7_ MAC  --- 22 message 209 [0 16000000 ffff0008 0] ------- [22:42 -1:42 10 0] 
r 0.024048302 _7_ AGT  --- 22 message 209 [0 16000000 ffff0008 0] ------- [22:42 -1:42 10 0] 
s 0.024048302 _7_ AGT  --- 22 message 209 [0 16000000 ffff0008 0] ------- [22:42 -1:42 9 0] 
r 0.024048303 _6_ MAC  --- 22 message 209 [0 16000000 ffff0008 0] ------- [22:42 -1:42 10 0] 
r 0.024048303 _8_ MAC  --- 22 message 209 [0 16000000 ffff0008 0] ------- [22:42 -1:42 10 0] 
r 0.024048303 _6_ AGT  --- 22 message 209 [0 16000000 ffff0008 0] ------- [22:42 -1:42 10 0] 
s 0.024048303 _6_ AGT  --- 22 message 209 [0 16000000 ffff0008 0] ------- [22:42 -1:42 9 0] 
r 0.024048303 _8_ AGT  --- 22 message 209 [0 16000000 ffff0008 0] ------- [22:42 -1:42 10 0] 
s 0.024048303 _8_ AGT  --- 22 message 209 [0 16000000 ffff0008 0] ------- [22:42 -1:42 9 0] 
r 0.024048304 _5_ MAC  --- 22 message 209 [0 16000000 ffff0008 0] ------- [22:42 -1:42 10 0] 
r 0.024048304 _9_ MAC  --- 22 message 209 [0 16000000 ffff0008 0] ------- [22:42 -1:42 10 0] 
r 0.024048304 _5_ AGT  --- 22 message 209 [0 16000000 ffff0008 0] ------- [22:42 -1:42 10 0] 
s 0.024048304 _5_ AGT  --- 22 message 209 [0 16000000 ffff0008 0] ------- [22:42 -1:42 9 0] 
r 0.024048304 _9_ AGT  --- 22 message 209 [0 16000000 ffff0008 0] ------- [22:42 -1:42 10 0] 
s 0.024048304 _9_ AGT  --- 22 message 209 [0 16000000 ffff0008 0] ------- [22:42 -1:42 9 0] 
r 0.024048305 _2_ MAC  --- 22 message 209 [0 16000000 ffff0008 0] ------- [22:42 -1:42 10 0] 
r 0.024048305 _2_ AGT  --- 22 message 209 [0 16000000 ffff0008 0] ------- [22:42 -1:42 10 0] 
s 0.024048305 _2_ AGT  --- 22 message 209 [0 16000000 ffff0008 0] ------- [22:42 -1:42 9 0] 
r 0.024048306 _1_ MAC  --- 22 message 209 [0 16000000 ffff0008 0] ------- [22:42 -1:42 10 0] 
r 0.024048306 _3_ MAC  --- 22 message 209 [0 16000000 ffff0008 0] ------- [22:42 -1:42 10 0] 
r 0.024048306 _1_ AGT  --- 22 message 209 [0 16000000 ffff0008 0] ------- [22:42 -1:42 10 0] 
s 0.024048306 _1_ AGT  --- 22 message 209 [0 16000000 ffff0008 0] ------- [22:42 -1:42 9 0] 
r 0.024048306 _3_ AGT  --- 22 message 209 [0 16000000 ffff0008 0] ------- [22:42 -1:42 10 0] 
s 0.024048306 _3_ AGT  --- 22 message 209 [0 16000000 ffff0008 0] ------- [22:42 -1:42 9 0] 
r 0.024048307 _0_ MAC  --- 22 message 209 [0 16000000 ffff0008 0] ------- [22:42 -1:42 10 0] 
r 0.024048307 _4_ MAC  --- 22 message 209 [0 16000000 ffff0008 0] ------- [22:42 -1:42 10 0] 
r 0.024048307 _0_ AGT  --- 22 message 209 [0 16000000 ffff0008 0] ------- [22:42 -1:42 10 0] 
r 0.024048307 _4_ AGT  --- 22 message 209 [0 16000000 ffff0008 0] ------- [22:42 -1:42 10 0] 
s 0.024048307 _4_ AGT  --- 22 message 209 [0 16000000 ffff0008 0] ------- [22:42 -1:42 9 0] 
s 0.024302335 _12_ MAC  --- 12 message 209 [0 c000000 ffff0008 0] ------- [12:42 -1:42 10 0] 
s 0.024622005 _8_ MAC  --- 8 message 209 [0 8000000 ffff0008 0] ------- [8:42 -1:42 10 0] 
r 0.024711338 _7_ MAC  --- 12 message 209 [0 c000000 ffff0008 0] ------- [12:42 -1:42 10 0] 
r 0.024711338 _11_ MAC  --- 12 message 209 [0 c000000 ffff0008 0] ------- [12:42 -1:42 10 0] 
r 0.024711338 _17_ MAC  --- 12 message 209 [0 c000000 ffff0008 0] ------- [12:42 -1:42 10 0] 
r 0.024711338 _13_ MAC  --- 12 message 209 [0 c000000 ffff0008 0] ------- [12:42 -1:42 10 0] 
r 0.024711338 _7_ AGT  --- 12 message 209 [0 c000000 ffff0008 0] ------- [12:42 -1:42 10 0] 
s 0.024711338 _7_ AGT  --- 12 message 209 [0 c000000 ffff0008 0] ------- [12:42 -1:42 9 0] 
r 0.024711338 _11_ AGT  --- 12 message 209 [0 c000000 ffff0008 0] ------- [12:42 -1:42 10 0] 
s 0.024711338 _11_ AGT  --- 12 message 209 [0 c000000 ffff0008 0] ------- [12:42 -1:42 9 0] 
r 0.024711338 _17_ AGT  --- 12 message 209 [0 c000000 ffff0008 0] ------- [12:42 -1:42 10 0] 
s 0.024711338 _17_ AGT  --- 12 message 209 [0 c000000 ffff0008 0] ------- [12:42 -1:42 9 0] 
r 0.024711338 _13_ AGT  --- 12 message 209 [0 c000000 ffff0008 0] ------- [12:42 -1:42 10 0] 
s 0.024711338 _13_ AGT  --- 12 message 209 [0 c000000 ffff0008 0] ------- [12:42 -1:42 9 0] 
r 0.024711340 _6_ MAC  --- 12 message 209 [0 c000000 ffff0008 0] ------- [12:42 -1:42 10 0] 
r 0.024711340 _6_ AGT  --- 12 message 209 [0 c000000 ffff0008 0] ------- [12:42 -1:42 10 0] 
s 0.024711340 _6_ AGT  --- 12 message 209 [0 c000000 ffff0008 0] ------- [12:42 -1:42 9 0] 
r 0.024711342 _2_ MAC  --- 12 message 209 [0 c000000 ffff0008 0] ------- [12:42 -1:42 10 0] 
r 0.024711342 _10_ MAC  --- 12 message 209 [0 c000000 ffff0008 0] ------- [12:42 -1:42 10 0] 
r 0.024711342 _22_ MAC  --- 12 message 209 [0 c000000 ffff0008 0] ------- [12:42 -1:42 10 0] 
r 0.024711342 _14_ MAC  --- 12 message 209 [0 c000000 ffff0008 0] ------- [12:42 -1:42 10 0] 
r 0.024711342 _2_ AGT  --- 12 message 209 [0 c000000 ffff0008 0] ------- [12:42 -1:42 10 0] 
s 0.024711342 _2_ AGT  --- 12 message 209 [0 c000000 ffff0008 0] ------- [12:42 -1:42 9 0] 
r 0.024711342 _10_ AGT  --- 12 message 209 [0 c000000 ffff0008 0] ------- [12:42 -1:42 10 0] 
s 0.024711342 _10_ AGT  --- 12 message 209 [0 c000000 ffff0008 0] ------- [12:42 -1:42 9 0] 
r 0.024711342 _22_ AGT  --- 12 message 209 [0 c000000 ffff0008 0] ------- [12:42 -1:42 10 0] 
s 0.024711342 _22_ AGT  --- 12 message 209 [0 c000000 ffff0008 0] ------- [12:42 -1:42 9 0] 
r 0.024711342 _14_ AGT  --- 12 message 209 [0 c000000 ffff0008 0] ------- [12:42 -1:42 10 0] 
s 0.024711342 _14_ AGT  --- 12 message 209 [0 c000000 ffff0008 0] ------- [12:42 -1:42 9 0] 
r 0.024711342 _21_ MAC  --- 12 message 209 [0 c000000 ffff0008 0] ------- [12:42 -1:42 10 0] 
r 0.024711342 _1_ MAC  --- 12 message 209 [0 c000000 ffff0008 0] ------- [12:42 -1:42 10 0] 
r 0.024711342 _15_ MAC  --- 12 message 209 [0 c000000 ffff0008 0] ------- [12:42 -1:42 10 0] 
r 0.024711342 _5_ MAC  --- 12 message 209 [0 c000000 ffff0008 0] ------- [12:42 -1:42 10 0] 
r 0.024711342 _3_ MAC  --- 12 message 209 [0 c000000 ffff0008 0] ------- [12:42 -1:42 10 0] 
r 0.024711342 _23_ MAC  --- 12 message 209 [0 c000000 ffff0008 0] ------- [12:42 -1:42 10 0] 
r 0.024711342 _9_ MAC  --- 12 message 209 [0 c000000 ffff0008 0] ------- [12:42 -1:42 10 0] 
r 0.024711342 _19_ MAC  --- 12 message 209 [0 c000000 ffff0008 0] ------- [12:42 -1:42 10 0] 
r 0.024711342 _21_ AGT  --- 12 message 209 [0 c000000 ffff0008 0] ------- [12:42 -1:42 10 0] 
s 0.024711342 _21_ AGT  --- 12 message 209 [0 c000000 ffff0008 0] ------- [12:42 -1:42 9 0] 
r 0.024711342 _1_ AGT  --- 12 message 209 [0 c000000 ffff0008 0] ------- [12:42 -1:42 10 0] 
s 0.024711342 _1_ AGT  --- 12 message 209 [0 c000000 ffff0008 0] ------- [12:42 -1:42 9 0] 
r 0.024711342 _15_ AGT  --- 12 message 209 [0 c000000 ffff0008 0] ------- [12:42 -1:42 10 0] 
s 0.024711342 _15_ AGT  --- 12 message 209 [0 c000000 ffff0008 0] ------- [12:42 -1:42 9 0] 
r 0.024711342 _5_ AGT  --- 12 message 209 [0 c000000 ffff0008 0] ------- [12:42 -1:42 10 0] 
s 0.024711342 _5_ AGT  --- 12 message 209 [0 c000000 ffff0008 0] ------- [12:42 -1:42 9 0] 
r 0.024711342 _3_ AGT  --- 12 message 209 [0 c000000 ffff0008 0] ------- [12:42 -1:42 10 0] 
s 0.024711342 _3_ AGT  --- 12 message 209 [0 c000000 ffff0008 0] ------- [12:42 -1:42 9 0] 
r 0.024711342 _23_ AGT  --- 12 message 209 [0 c000000 ffff0008 0] ------- [12:42 -1:42 10 0] 
s 0.024711342 _23_ AGT  --- 12 message 209 [0 c000000 ffff0008 0] ------- [12:42 -1:42 9 0] 
r 0.024711342 _9_ AGT  --- 12 message 209 [0 c000000 ffff0008 0] ------- [12:42 -1:42 10 0] 
s 0.024711342 _9_ AGT  --- 12 message 209 [0 c000000 ffff0008 0] ------- [12:42 -1:42 9 0] 
r 0.024711342 _19_ AGT  --- 12 message 209 [0 c000000 ffff0008 0] ------- [12:42 -1:42 10 0] 
s 0.024711342 _19_ AGT  --- 12 message 209 [0 c000000 ffff0008 0] ------- [12:42 -1:42 9 0] 
r 0.024711344 _20_ MAC  --- 12 message 209 [0 c000000 ffff0008 0] ------- [12:42 -1:42 10 0] 
r 0.024711344 _0_ MAC  --- 12 message 209 [0 c000000 ffff0008 0] ------- [12:42 -1:42 10 0] 
r 0.024711344 _4_ MAC  --- 12 message 209 [0 c000000 ffff0008 0] ------- [12:42 -1:42 10 0] 
r 0.024711344 _24_ MAC  --- 12 message 209 [0 c000000 ffff0008 0] ------- [12:42 -1:42 10 0] 
r 0.024711344 _20_ AGT  --- 12 message 209 [0 c000000 ffff0008 0] ------- [12:42 -1:42 10 0] 
s 0.024711344 _20_ AGT  --- 12 message 209 [0 c000000 ffff0008 0] ------- [12:42 -1:42 9 0] 
r 0.024711344 _0_ AGT  --- 12 message 209 [0 c000000 ffff0008 0] ------- [12:42 -1:42 10 0] 
r 0.024711344 _4_ AGT  --- 12 message 209 [0 c000000 ffff0008 0] ------- [12:42 -1:42 10 0] 
s 0.024711344 _4_ AGT  --- 12 message 209 [0 c000000 ffff0008 0] ------- [12:42 -1:42 9 0] 
r 0.024711344 _24_ AGT  --- 12 message 209 [0 c000000 ffff0008 0] ------- [12:42 -1:42 10 0] 
s 0.024711344 _24_ AGT  --- 12 message 209 [0 c000000 ffff0008 0] ------- [12:42 -1:42 9 0] 
s 0.024934767 _4_ MAC  --- 4 message 209 [0 4000000 ffff0008 0] ------- [4:42 -1:42 10 0] 
r 0.025031012 _18_ MAC  --- 8 message 209 [0 8000000 ffff0008 0] ------- [8:42 -1:42 10 0] 
r 0.025031012 _18_ AGT  --- 8 message 209 [0 8000000 ffff0008 0] ------- [8:42 -1:42 10 0] 
s 0.025031012 _18_ AGT  --- 8 message 209 [0 8000000 ffff0008 0] ------- [8:42 -1:42 9 0] 
r 0.025031015 _16_ MAC  --- 8 message 209 [0 8000000 ffff0008 0] ------- [8:42 -1:42 10 0] 
r 0.025031015 _16_ AGT  --- 8 message 209 [0 8000000 ffff0008 0] ------- [8:42 -1:42 10 0] 
s 0.025031015 _16_ AGT  --- 8 message 209 [0 8000000 ffff0008 0] ------- [8:42 -1:42 9 0] 
r 0.025343770 _3_ MAC  --- 4 message 209 [0 4000000 ffff0008 0] ------- [4:42 -1:42 10 0] 
r 0.025343770 _9_ MAC  --- 4 message 209 [0 4000000 ffff0008 0] ------- [4:42 -1:42 10 0] 
r 0.025343770 _3_ AGT  --- 4 message 209 [0 4000000 ffff0008 0] ------- [4:42 -1:42 10 0] 
s 0.025343770 _3_ AGT  --- 4 message 209 [0 4000000 ffff0008 0] ------- [4:42 -1:42 9 0] 
r 0.025343770 _9_ AGT  --- 4 message 209 [0 4000000 ffff0008 0] ------- [4:42 -1:42 10 0] 
s 0.025343770 _9_ AGT  --- 4 message 209 [0 4000000 ffff0008 0] ------- [4:42 -1:42 9 0] 
r 0.025343773 _2_ MAC  --- 4 message 209 [0 4000000 ffff0008 0] ------- [4:42 -1:42 10 0] 
r 0.025343773 _14_ MAC  --- 4 message 209 [0 4000000 ffff0008 0] ------- [4:42 -1:42 10 0] 
r 0.025343773 _2_ AGT  --- 4 message 209 [0 4000000 ffff0008 0] ------- [4:42 -1:42 10 0] 
s 0.025343773 _2_ AGT  --- 4 message 209 [0 4000000 ffff0008 0] ------- [4:42 -1:42 9 0] 
r 0.025343773 _14_ AGT  --- 4 message 209 [0 4000000 ffff0008 0] ------- [4:42 -1:42 10 0] 
s 0.025343773 _14_ AGT  --- 4 message 209 [0 4000000 ffff0008 0] ------- [4:42 -1:42 9 0] 
r 0.025343774 _13_ MAC  --- 4 message 209 [0 4000000 ffff0008 0] ------- [4:42 -1:42 10 0] 
r 0.025343774 _7_ MAC  --- 4 message 209 [0 4000000 ffff0008 0] ------- [4:42 -1:42 10 0] 
r 0.025343774 _13_ AGT  --- 4 message 209 [0 4000000 ffff0008 0] ------- [4:42 -1:42 10 0] 
s 0.025343774 _13_ AGT  --- 4 message 209 [0 4000000 ffff0008 0] ------- [4:42 -1:42 9 0] 
r 0.025343774 _7_ AGT  --- 4 message 209 [0 4000000 ffff0008 0] ------- [4:42 -1:42 10 0] 
s 0.025343774 _7_ AGT  --- 4 message 209 [0 4000000 ffff0008 0] ------- [4:42 -1:42 9 0] 
r 0.025343776 _12_ MAC  --- 4 message 209 [0 4000000 ffff0008 0] ------- [4:42 -1:42 10 0] 
r 0.025343776 _12_ AGT  --- 4 message 209 [0 4000000 ffff0008 0] ------- [4:42 -1:42 10 0] 
s 0.025343776 _12_ AGT  --- 4 message 209 [0 4000000 ffff0008 0] ------- [4:42 -1:42 9 0] 
r 0.025343777 _1_ MAC  --- 4 message 209 [0 4000000 ffff0008 0] ------- [4:42 -1:42 10 0] 
r 0.025343777 _19_ MAC  --- 4 message 209 [0 4000000 ffff0008 0] ------- [4:42 -1:42 10 0] 
r 0.025343777 _1_ AGT  --- 4 message 209 [0 4000000 ffff0008 0] ------- [4:42 -1:42 10 0] 
s 0.025343777 _1_ AGT  --- 4 message 209 [0 4000000 ffff0008 0] ------- [4:42 -1:42 9 0] 
r 0.025343777 _19_ AGT  --- 4 message 209 [0 4000000 ffff0008 0] ------- [4:42 -1:42 10 0] 
s 0.025343777 _19_ AGT  --- 4 message 209 [0 4000000 ffff0008 0] ------- [4:42 -1:42 9 0] 
r 0.025343777 _6_ MAC  --- 4 message 209 [0 4000000 ffff0008 0] ------- [4:42 -1:42 10 0] 
r 0.025343777 _6_ AGT  --- 4 message 209 [0 4000000 ffff0008 0] ------- [4:42 -1:42 10 0] 
s 0.025343777 _6_ AGT  --- 4 message 209 [0 4000000 ffff0008 0] ------- [4:42 -1:42 9 0] 
r 0.025343779 _17_ MAC  --- 4 message 209 [0 4000000 ffff0008 0] ------- [4:42 -1:42 10 0] 
r 0.025343779 _11_ MAC  --- 4 message 209 [0 4000000 ffff0008 0] ------- [4:42 -1:42 10 0] 
r 0.025343779 _17_ AGT  --- 4 message 209 [0 4000000 ffff0008 0] ------- [4:42 -1:42 10 0] 
s 0.025343779 _17_ AGT  --- 4 message 209 [0 4000000 ffff0008 0] ------- [4:42 -1:42 9 0] 
r 0.025343779 _11_ AGT  --- 4 message 209 [0 4000000 ffff0008 0] ------- [4:42 -1:42 10 0] 
s 0.025343779 _11_ AGT  --- 4 message 209 [0 4000000 ffff0008 0] ------- [4:42 -1:42 9 0] 
r 0.025343780 _0_ MAC  --- 4 message 209 [0 4000000 ffff0008 0] ------- [4:42 -1:42 10 0] 
r 0.025343780 _24_ MAC  --- 4 message 209 [0 4000000 ffff0008 0] ------- [4:42 -1:42 10 0] 
r 0.025343780 _0_ AGT  --- 4 message 209 [0 4000000 ffff0008 0] ------- [4:42 -1:42 10 0] 
r 0.025343780 _24_ AGT  --- 4 message 209 [0 4000000 ffff0008 0] ------- [4:42 -1:42 10 0] 
s 0.025343780 _24_ AGT  --- 4 message 209 [0 4000000 ffff0008 0] ------- [4:42 -1:42 9 0] 
r 0.025343780 _23_ MAC  --- 4 message 209 [0 4000000 ffff0008 0] ------- [4:42 -1:42 10 0] 
r 0.025343780 _5_ MAC  --- 4 message 209 [0 4000000 ffff0008 0] ------- [4:42 -1:42 10 0] 
r 0.025343780 _23_ AGT  --- 4 message 209 [0 4000000 ffff0008 0] ------- [4:42 -1:42 10 0] 
s 0.025343780 _23_ AGT  --- 4 message 209 [0 4000000 ffff0008 0] ------- [4:42 -1:42 9 0] 
r 0.025343780 _5_ AGT  --- 4 message 209 [0 4000000 ffff0008 0] ------- [4:42 -1:42 10 0] 
s 0.025343780 _5_ AGT  --- 4 message 209 [0 4000000 ffff0008 0] ------- [4:42 -1:42 9 0] 
r 0.025343782 _22_ MAC  --- 4 message 209 [0 4000000 ffff0008 0] ------- [4:42 -1:42 10 0] 
r 0.025343782 _10_ MAC  --- 4 message 209 [0 4000000 ffff0008 0] ------- [4:42 -1:42 10 0] 
r 0.025343782 _22_ AGT  --- 4 message 209 [0 4000000 ffff0008 0] ------- [4:42 -1:42 10 0] 
s 0.025343782 _22_ AGT  --- 4 message 209 [0 4000000 ffff0008 0] ------- [4:42 -1:42 9 0] 
r 0.025343782 _10_ AGT  --- 4 message 209 [0 4000000 ffff0008 0] ------- [4:42 -1:42 10 0] 
s 0.025343782 _10_ AGT  --- 4 message 209 [0 4000000 ffff0008 0] ------- [4:42 -1:42 9 0] 
r 0.025343783 _21_ MAC  --- 4 message 209 [0 4000000 ffff0008 0] ------- [4:42 -1:42 10 0] 
r 0.025343783 _15_ MAC  --- 4 message 209 [0 4000000 ffff0008 0] ------- [4:42 -1:42 10 0] 
r 0.025343783 _21_ AGT  --- 4 message 209 [0 4000000 ffff0008 0] ------- [4:42 -1:42 10 0] 
s 0.025343783 _21_ AGT  --- 4 message 209 [0 4000000 ffff0008 0] ------- [4:42 -1:42 9 0] 
r 0.025343783 _15_ AGT  --- 4 message 209 [0 4000000 ffff0008 0] ------- [4:42 -1:42 10 0] 
s 0.025343783 _15_ AGT  --- 4 message 209 [0 4000000 ffff0008 0] ------- [4:42 -1:42 9 0] 
r 0.025343785 _20_ MAC  --- 4 message 209 [0 4000000 ffff0008 0] ------- [4:42 -1:42 10 0] 
r 0.025343785 _20_ AGT  --- 4 message 209 [0 4000000 ffff0008 0] ------- [4:42 -1:42 10 0] 
s 0.025343785 _20_ AGT  --- 4 message 209 [0 4000000 ffff0008 0] ------- [4:42 -1:42 9 0] 
s 0.026048488 _23_ MAC  --- 23 message 209 [0 17000000 ffff0008 0] ------- [23:42 -1:42 10 0] 
r 0.026457491 _18_ MAC  --- 23 message 209 [0 17000000 ffff0008 0] ------- [23:42 -1:42 10 0] 
r 0.026457491 _22_ MAC  --- 23 message 209 [0 17000000 ffff0008 0] ------- [23:42 -1:42 10 0] 
r 0.026457491 _24_ MAC  --- 23 message 209 [0 17000000 ffff0008 0] ------- [23:42 -1:42 10 0] 
r 0.026457491 _18_ AGT  --- 23 message 209 [0 17000000 ffff0008 0] ------- [23:42 -1:42 10 0] 
s 0.026457491 _18_ AGT  --- 23 message 209 [0 17000000 ffff0008 0] ------- [23:42 -1:42 9 0] 
r 0.026457491 _22_ AGT  --- 23 message 209 [0 17000000 ffff0008 0] ------- [23:42 -1:42 10 0] 
s 0.026457491 _22_ AGT  --- 23 message 209 [0 17000000 ffff0008 0] ------- [23:42 -1:42 9 0] 
r 0.026457491 _24_ AGT  --- 23 message 209 [0 17000000 ffff0008 0] ------- [23:42 -1:42 10 0] 
s 0.026457491 _24_ AGT  --- 23 message 209 [0 17000000 ffff0008 0] ------- [23:42 -1:42 9 0] 
r 0.026457492 _17_ MAC  --- 23 message 209 [0 17000000 ffff0008 0] ------- [23:42 -1:42 10 0] 
r 0.026457492 _19_ MAC  --- 23 message 209 [0 17000000 ffff0008 0] ------- [23:42 -1:42 10 0] 
r 0.026457492 _17_ AGT  --- 23 message 209 [0 17000000 ffff0008 0] ------- [23:42 -1:42 10 0] 
s 0.026457492 _17_ AGT  --- 23 message 209 [0 17000000 ffff0008 0] ------- [23:42 -1:42 9 0] 
r 0.026457492 _19_ AGT  --- 23 message 209 [0 17000000 ffff0008 0] ------- [23:42 -1:42 10 0] 
s 0.026457492 _19_ AGT  --- 23 message 209 [0 17000000 ffff0008 0] ------- [23:42 -1:42 9 0] 
r 0.026457494 _13_ MAC  --- 23 message 209 [0 17000000 ffff0008 0] ------- [23:42 -1:42 10 0] 
r 0.026457494 _21_ MAC  --- 23 message 209 [0 17000000 ffff0008 0] ------- [23:42 -1:42 10 0] 