s 0.000000000 _1_ AGT  --- 1 message 209 [0 0 0 0] ------- [1:42 -1:42 10 0] 
s 0.000000000 _2_ AGT  --- 2 message 209 [0 0 0 0] ------- [2:42 -1:42 10 0] 
s 0.000000000 _3_ AGT  --- 3 message 209 [0 0 0 0] ------- [3:42 -1:42 10 0] 
s 0.000000000 _4_ AGT  --- 4 message 209 [0 0 0 0] ------- [4:42 -1:42 10 0] 
s 0.000000000 _5_ AGT  --- 5 message 209 [0 0 0 0] ------- [5:42 -1:42 10 0] 
s 0.000000000 _6_ AGT  --- 6 message 209 [0 0 0 0] ------- [6:42 -1:42 10 0] 
s 0.000000000 _7_ AGT  --- 7 message 209 [0 0 0 0] ------- [7:42 -1:42 10 0] 
s 0.000000000 _8_ AGT  --- 8 message 209 [0 0 0 0] ------- [8:42 -1:42 10 0] 
s 0.000000000 _9_ AGT  --- 9 message 209 [0 0 0 0] ------- [9:42 -1:42 10 0] 
s 0.000000000 _10_ AGT  --- 10 message 209 [0 0 0 0] ------- [10:42 -1:42 10 0] 
s 0.000000000 _11_ AGT  --- 11 message 209 [0 0 0 0] ------- [11:42 -1:42 10 0] 
s 0.000000000 _12_ AGT  --- 12 message 209 [0 0 0 0] ------- [12:42 -1:42 10 0] 
s 0.000000000 _13_ AGT  --- 13 message 209 [0 0 0 0] ------- [13:42 -1:42 10 0] 
s 0.000000000 _14_ AGT  --- 14 message 209 [0 0 0 0] ------- [14:42 -1:42 10 0] 
s 0.000000000 _15_ AGT  --- 15 message 209 [0 0 0 0] ------- [15:42 -1:42 10 0] 
s 0.000000000 _16_ AGT  --- 16 message 209 [0 0 0 0] ------- [16:42 -1:42 10 0] 
s 0.000000000 _17_ AGT  --- 17 message 209 [0 0 0 0] ------- [17:42 -1:42 10 0] 
s 0.000000000 _18_ AGT  --- 18 message 209 [0 0 0 0] ------- [18:42 -1:42 10 0] 
s 0.000000000 _19_ AGT  --- 19 message 209 [0 0 0 0] ------- [19:42 -1:42 10 0] 
s 0.000000000 _20_ AGT  --- 20 message 209 [0 0 0 0] ------- [20:42 -1:42 10 0] 
s 0.000000000 _21_ AGT  --- 21 message 209 [0 0 0 0] ------- [21:42 -1:42 10 0] 
s 0.000000000 _22_ AGT  --- 22 message 209 [0 0 0 0] ------- [22:42 -1:42 10 0] 
s 0.000000000 _23_ AGT  --- 23 message 209 [0 0 0 0] ------- [23:42 -1:42 10 0] 
s 0.000000000 _24_ AGT  --- 24 message 209 [0 0 0 0] ------- [24:42 -1:42 10 0] 
s 0.020041861 _6_ MAC  --- 6 message 209 [0 6000000 ffff0008 0] ------- [6:42 -1:42 10 0] 
s 0.020054729 _21_ MAC  --- 21 message 209 [0 15000000 ffff0008 0] ------- [21:42 -1:42 10 0] 
s 0.020155368 _4_ MAC  --- 4 message 209 [0 4000000 ffff0008 0] ------- [4:42 -1:42 10 0] 
s 0.020346815 _17_ MAC  --- 17 message 209 [0 11000000 ffff0008 0] ------- [17:42 -1:42 10 0] 
s 0.022304995 _9_ MAC  --- 9 message 209 [0 9000000 ffff0008 0] ------- [9:42 -1:42 10 0] 
s 0.022467050 _7_ MAC  --- 7 message 209 [0 7000000 ffff0008 0] ------- [7:42 -1:42 10 0] 
s 0.022648558 _20_ MAC  --- 20 message 209 [0 14000000 ffff0008 0] ------- [20:42 -1:42 10 0] 
s 0.022756201 _3_ MAC  --- 3 message 209 [0 3000000 ffff0008 0] ------- [3:42 -1:42 10 0] 
s 0.022907554 _16_ MAC  --- 16 message 209 [0 10000000 ffff0008 0] ------- [16:42 -1:42 10 0] 
s 0.022908543 _1_ MAC  --- 1 message 209 [0 1000000 ffff0008 0] ------- [1:42 -1:42 10 0] 
s 0.023049918 _14_ MAC  --- 14 message 209 [0 e000000 ffff0008 0] ------- [14:42 -1:42 10 0] 
s 0.023179519 _12_ MAC  --- 12 message 209 [0 c000000 ffff0008 0] ------- [12:42 -1:42 10 0] 
s 0.025227175 _19_ MAC  --- 19 message 209 [0 13000000 ffff0008 0] ------- [19:42 -1:42 10 0] 
s 0.025334355 _2_ MAC  --- 2 message 209 [0 2000000 ffff0008 0] ------- [2:42 -1:42 10 0] 
s 0.025523886 _15_ MAC  --- 15 message 209 [0 f000000 ffff0008 0] ------- [15:42 -1:42 10 0] 
s 0.025624217 _13_ MAC  --- 13 message 209 [0 d000000 ffff0008 0] ------- [13:42 -1:42 10 0] 
r 0.025636179 _14_ MAC  --- 19 message 209 [0 13000000 ffff0008 0] ------- [19:42 -1:42 10 0] 
r 0.025636179 _18_ MAC  --- 19 message 209 [0 13000000 ffff0008 0] ------- [19:42 -1:42 10 0] 
r 0.025636179 _24_ MAC  --- 19 message 209 [0 13000000 ffff0008 0] ------- [19:42 -1:42 10 0] 
r 0.025636179 _14_ AGT  --- 19 message 209 [0 13000000 ffff0008 0] ------- [19:42 -1:42 10 0] 
s 0.025636179 _14_ AGT  --- 19 message 209 [0 13000000 ffff0008 0] ------- [19:42 -1:42 9 0] 
r 0.025636179 _18_ AGT  --- 19 message 209 [0 13000000 ffff0008 0] ------- [19:42 -1:42 10 0] 
s 0.025636179 _18_ AGT  --- 19 message 209 [0 13000000 ffff0008 0] ------- [19:42 -1:42 9 0] 
r 0.025636179 _24_ AGT  --- 19 message 209 [0 13000000 ffff0008 0] ------- [19:42 -1:42 10 0] 
s 0.025636179 _24_ AGT  --- 19 message 209 [0 13000000 ffff0008 0] ------- [19:42 -1:42 9 0] 
r 0.025636180 _23_ MAC  --- 19 message 209 [0 13000000 ffff0008 0] ------- [19:42 -1:42 10 0] 
r 0.025636180 _23_ AGT  --- 19 message 209 [0 13000000 ffff0008 0] ------- [19:42 -1:42 10 0] 
s 0.025636180 _23_ AGT  --- 19 message 209 [0 13000000 ffff0008 0] ------- [19:42 -1:42 9 0] 
s 0.025780037 _11_ MAC  --- 11 message 209 [0 b000000 ffff0008 0] ------- [11:42 -1:42 10 0] 
r 0.026189040 _10_ MAC  --- 11 message 209 [0 b000000 ffff0008 0] ------- [11:42 -1:42 10 0] 
r 0.026189040 _10_ AGT  --- 11 message 209 [0 b000000 ffff0008 0] ------- [11:42 -1:42 10 0] 
s 0.026189040 _10_ AGT  --- 11 message 209 [0 b000000 ffff0008 0] ------- [11:42 -1:42 9 0] 
s 0.027318426 _24_ MAC  --- 24 message 209 [0 18000000 ffff0008 0] ------- [24:42 -1:42 10 0] 
s 0.027501957 _22_ MAC  --- 22 message 209 [0 16000000 ffff0008 0] ------- [22:42 -1:42 10 0] 
s 0.027601969 _5_ MAC  --- 5 message 209 [0 5000000 ffff0008 0] ------- [5:42 -1:42 10 0] 
s 0.027754789 _18_ MAC  --- 18 message 209 [0 12000000 ffff0008 0] ------- [18:42 -1:42 10 0] 
r 0.028163793 _13_ MAC  --- 18 message 209 [0 12000000 ffff0008 0] ------- [18:42 -1:42 10 0] 
r 0.028163793 _17_ MAC  --- 18 message 209 [0 12000000 ffff0008 0] ------- [18:42 -1:42 10 0] 
r 0.028163793 _23_ MAC  --- 18 message 209 [0 12000000 ffff0008 0] ------- [18:42 -1:42 10 0] 
r 0.028163793 _19_ MAC  --- 18 message 209 [0 12000000 ffff0008 0] ------- [18:42 -1:42 10 0] 
r 0.028163793 _13_ AGT  --- 18 message 209 [0 12000000 ffff0008 0] ------- [18:42 -1:42 10 0] 
s 0.028163793 _13_ AGT  --- 18 message 209 [0 12000000 ffff0008 0] ------- [18:42 -1:42 9 0] 
r 0.028163793 _17_ AGT  --- 18 message 209 [0 12000000 ffff0008 0] ------- [18:42 -1:42 10 0] 
s 0.028163793 _17_ AGT  --- 18 message 209 [0 12000000 ffff0008 0] ------- [18:42 -1:42 9 0] 
r 0.028163793 _23_ AGT  --- 18 message 209 [0 12000000 ffff0008 0] ------- [18:42 -1:42 10 0] 
s 0.028163793 _23_ AGT  --- 18 message 209 [0 12000000 ffff0008 0] ------- [18:42 -1:42 9 0] 
r 0.028163793 _19_ AGT  --- 18 message 209 [0 12000000 ffff0008 0] ------- [18:42 -1:42 10 0] 
s 0.028163793 _19_ AGT  --- 18 message 209 [0 12000000 ffff0008 0] ------- [18:42 -1:42 9 0] 
r 0.028163794 _14_ MAC  --- 18 message 209 [0 12000000 ffff0008 0] ------- [18:42 -1:42 10 0] 
r 0.028163794 _24_ MAC  --- 18 message 209 [0 12000000 ffff0008 0] ------- [18:42 -1:42 10 0] 
r 0.028163794 _14_ AGT  --- 18 message 209 [0 12000000 ffff0008 0] ------- [18:42 -1:42 10 0] 
s 0.028163794 _14_ AGT  --- 18 message 209 [0 12000000 ffff0008 0] ------- [18:42 -1:42 9 0] 
r 0.028163794 _24_ AGT  --- 18 message 209 [0 12000000 ffff0008 0] ------- [18:42 -1:42 10 0] 
s 0.028163794 _24_ AGT  --- 18 message 209 [0 12000000 ffff0008 0] ------- [18:42 -1:42 9 0] 
s 0.029725123 _10_ MAC  --- 10 message 209 [0 a000000 ffff0008 0] ------- [10:42 -1:42 10 0] 
s 0.029901374 _23_ MAC  --- 23 message 209 [0 17000000 ffff0008 0] ------- [23:42 -1:42 10 0] 
s 0.029916229 _8_ MAC  --- 8 message 209 [0 8000000 ffff0008 0] ------- [8:42 -1:42 10 0] 
s 0.046184356 _14_ MAC  --- 19 message 209 [0 e000000 ffff0008 0] ------- [19:42 -1:42 9 0] 
r 0.046593359 _9_ MAC  --- 19 message 209 [0 e000000 ffff0008 0] ------- [19:42 -1:42 9 0] 
r 0.046593359 _13_ MAC  --- 19 message 209 [0 e000000 ffff0008 0] ------- [19:42 -1:42 9 0] 
r 0.046593359 _19_ MAC  --- 19 message 209 [0 e000000 ffff0008 0] ------- [19:42 -1:42 9 0] 
r 0.046593359 _9_ AGT  --- 19 message 209 [0 e000000 ffff0008 0] ------- [19:42 -1:42 9 0] 
s 0.046593359 _9_ AGT  --- 19 message 209 [0 e000000 ffff0008 0] ------- [19:42 -1:42 8 0] 
r 0.046593359 _13_ AGT  --- 19 message 209 [0 e000000 ffff0008 0] ------- [19:42 -1:42 9 0] 
s 0.046593359 _13_ AGT  --- 19 message 209 [0 e000000 ffff0008 0] ------- [19:42 -1:42 8 0] 
r 0.046593359 _19_ AGT  --- 19 message 209 [0 e000000 ffff0008 0] ------- [19:42 -1:42 9 0] 
r 0.046593360 _18_ MAC  --- 19 message 209 [0 e000000 ffff0008 0] ------- [19:42 -1:42 9 0] 
r 0.046593360 _8_ MAC  --- 19 message 209 [0 e000000 ffff0008 0] ------- [19:42 -1:42 9 0] 
r 0.046593360 _18_ AGT  --- 19 message 209 [0 e000000 ffff0008 0] ------- [19:42 -1:42 9 0] 
r 0.046593360 _8_ AGT  --- 19 message 209 [0 e000000 ffff0008 0] ------- [19:42 -1:42 9 0] 
s 0.046593360 _8_ AGT  --- 19 message 209 [0 e000000 ffff0008 0] ------- [19:42 -1:42 8 0] 
r 0.046593362 _4_ MAC  --- 19 message 209 [0 e000000 ffff0008 0] ------- [19:42 -1:42 9 0] 
r 0.046593362 _12_ MAC  --- 19 message 209 [0 e000000 ffff0008 0] ------- [19:42 -1:42 9 0] 
r 0.046593362 _24_ MAC  --- 19 message 209 [0 e000000 ffff0008 0] ------- [19:42 -1:42 9 0] 
r 0.046593362 _4_ AGT  --- 19 message 209 [0 e000000 ffff0008 0] ------- [19:42 -1:42 9 0] 
s 0.046593362 _4_ AGT  --- 19 message 209 [0 e000000 ffff0008 0] ------- [19:42 -1:42 8 0] 
r 0.046593362 _12_ AGT  --- 19 message 209 [0 e000000 ffff0008 0] ------- [19:42 -1:42 9 0] 
s 0.046593362 _12_ AGT  --- 19 message 209 [0 e000000 ffff0008 0] ------- [19:42 -1:42 8 0] 
r 0.046593362 _24_ AGT  --- 19 message 209 [0 e000000 ffff0008 0] ------- [19:42 -1:42 9 0] 
r 0.046593363 _23_ MAC  --- 19 message 209 [0 e000000 ffff0008 0] ------- [19:42 -1:42 9 0] 
r 0.046593363 _3_ MAC  --- 19 message 209 [0 e000000 ffff0008 0] ------- [19:42 -1:42 9 0] 
r 0.046593363 _17_ MAC  --- 19 message 209 [0 e000000 ffff0008 0] ------- [19:42 -1:42 9 0] 
r 0.046593363 _7_ MAC  --- 19 message 209 [0 e000000 ffff0008 0] ------- [19:42 -1:42 9 0] 
r 0.046593363 _23_ AGT  --- 19 message 209 [0 e000000 ffff0008 0] ------- [19:42 -1:42 9 0] 
r 0.046593363 _3_ AGT  --- 19 message 209 [0 e000000 ffff0008 0] ------- [19:42 -1:42 9 0] 
s 0.046593363 _3_ AGT  --- 19 message 209 [0 e000000 ffff0008 0] ------- [19:42 -1:42 8 0] 
r 0.046593363 _17_ AGT  --- 19 message 209 [0 e000000 ffff0008 0] ------- [19:42 -1:42 9 0] 
s 0.046593363 _17_ AGT  --- 19 message 209 [0 e000000 ffff0008 0] ------- [19:42 -1:42 8 0] 
r 0.046593363 _7_ AGT  --- 19 message 209 [0 e000000 ffff0008 0] ------- [19:42 -1:42 9 0] 
s 0.046593363 _7_ AGT  --- 19 message 209 [0 e000000 ffff0008 0] ------- [19:42 -1:42 8 0] 
r 0.046593365 _22_ MAC  --- 19 message 209 [0 e000000 ffff0008 0] ------- [19:42 -1:42 9 0] 
r 0.046593365 _2_ MAC  --- 19 message 209 [0 e000000 ffff0008 0] ------- [19:42 -1:42 9 0] 
r 0.046593365 _22_ AGT  --- 19 message 209 [0 e000000 ffff0008 0] ------- [19:42 -1:42 9 0] 
s 0.046593365 _22_ AGT  --- 19 message 209 [0 e000000 ffff0008 0] ------- [19:42 -1:42 8 0] 
r 0.046593365 _2_ AGT  --- 19 message 209 [0 e000000 ffff0008 0] ------- [19:42 -1:42 9 0] 
s 0.046593365 _2_ AGT  --- 19 message 209 [0 e000000 ffff0008 0] ------- [19:42 -1:42 8 0] 
r 0.046593366 _11_ MAC  --- 19 message 209 [0 e000000 ffff0008 0] ------- [19:42 -1:42 9 0] 
r 0.046593366 _11_ AGT  --- 19 message 209 [0 e000000 ffff0008 0] ------- [19:42 -1:42 9 0] 
s 0.046593366 _11_ AGT  --- 19 message 209 [0 e000000 ffff0008 0] ------- [19:42 -1:42 8 0] 
r 0.046593366 _16_ MAC  --- 19 message 209 [0 e000000 ffff0008 0] ------- [19:42 -1:42 9 0] 
r 0.046593366 _6_ MAC  --- 19 message 209 [0 e000000 ffff0008 0] ------- [19:42 -1:42 9 0] 
r 0.046593366 _16_ AGT  --- 19 message 209 [0 e000000 ffff0008 0] ------- [19:42 -1:42 9 0] 
s 0.046593366 _16_ AGT  --- 19 message 209 [0 e000000 ffff0008 0] ------- [19:42 -1:42 8 0] 
r 0.046593366 _6_ AGT  --- 19 message 209 [0 e000000 ffff0008 0] ------- [19:42 -1:42 9 0] 
s 0.046593366 _6_ AGT  --- 19 message 209 [0 e000000 ffff0008 0] ------- [19:42 -1:42 8 0] 
r 0.046593368 _21_ MAC  --- 19 message 209 [0 e000000 ffff0008 0] ------- [19:42 -1:42 9 0] 
r 0.046593368 _1_ MAC  --- 19 message 209 [0 e000000 ffff0008 0] ------- [19:42 -1:42 9 0] 
r 0.046593368 _21_ AGT  --- 19 message 209 [0 e000000 ffff0008 0] ------- [19:42 -1:42 9 0] 
s 0.046593368 _21_ AGT  --- 19 message 209 [0 e000000 ffff0008 0] ------- [19:42 -1:42 8 0] 
r 0.046593368 _1_ AGT  --- 19 message 209 [0 e000000 ffff0008 0] ------- [19:42 -1:42 9 0] 
s 0.046593368 _1_ AGT  --- 19 message 209 [0 e000000 ffff0008 0] ------- [19:42 -1:42 8 0] 
r 0.046593369 _10_ MAC  --- 19 message 209 [0 e000000 ffff0008 0] ------- [19:42 -1:42 9 0] 
r 0.046593369 _10_ AGT  --- 19 message 209 [0 e000000 ffff0008 0] ------- [19:42 -1:42 9 0] 
s 0.046593369 _10_ AGT  --- 19 message 209 [0 e000000 ffff0008 0] ------- [19:42 -1:42 8 0] 
r 0.046593369 _15_ MAC  --- 19 message 209 [0 e000000 ffff0008 0] ------- [19:42 -1:42 9 0] 
r 0.046593369 _5_ MAC  --- 19 message 209 [0 e000000 ffff0008 0] ------- [19:42 -1:42 9 0] 
r 0.046593369 _15_ AGT  --- 19 message 209 [0 e000000 ffff0008 0] ------- [19:42 -1:42 9 0] 
s 0.046593369 _15_ AGT  --- 19 message 209 [0 e000000 ffff0008 0] ------- [19:42 -1:42 8 0] 
r 0.046593369 _5_ AGT  --- 19 message 209 [0 e000000 ffff0008 0] ------- [19:42 -1:42 9 0] 
s 0.046593369 _5_ AGT  --- 19 message 209 [0 e000000 ffff0008 0] ------- [19:42 -1:42 8 0] 
r 0.046593370 _20_ MAC  --- 19 message 209 [0 e000000 ffff0008 0] ------- [19:42 -1:42 9 0] 
r 0.046593370 _0_ MAC  --- 19 message 209 [0 e000000 ffff0008 0] ------- [19:42 -1:42 9 0] 
r 0.046593370 _20_ AGT  --- 19 message 209 [0 e000000 ffff0008 0] ------- [19:42 -1:42 9 0] 
s 0.046593370 _20_ AGT  --- 19 message 209 [0 e000000 ffff0008 0] ------- [19:42 -1:42 8 0] 
r 0.046593370 _0_ AGT  --- 19 message 209 [0 e000000 ffff0008 0] ------- [19:42 -1:42 9 0] 
s 0.047049592 _19_ MAC  --- 18 message 209 [0 13000000 ffff0008 0] ------- [18:42 -1:42 9 0] 
r 0.047458595 _14_ MAC  --- 18 message 209 [0 13000000 ffff0008 0] ------- [18:42 -1:42 9 0] 
r 0.047458595 _18_ MAC  --- 18 message 209 [0 13000000 ffff0008 0] ------- [18:42 -1:42 9 0] 
r 0.047458595 _24_ MAC  --- 18 message 209 [0 13000000 ffff0008 0] ------- [18:42 -1:42 9 0] 
r 0.047458595 _14_ AGT  --- 18 message 209 [0 13000000 ffff0008 0] ------- [18:42 -1:42 9 0] 
r 0.047458595 _18_ AGT  --- 18 message 209 [0 13000000 ffff0008 0] ------- [18:42 -1:42 9 0] 
r 0.047458595 _24_ AGT  --- 18 message 209 [0 13000000 ffff0008 0] ------- [18:42 -1:42 9 0] 
r 0.047458597 _23_ MAC  --- 18 message 209 [0 13000000 ffff0008 0] ------- [18:42 -1:42 9 0] 
r 0.047458597 _13_ MAC  --- 18 message 209 [0 13000000 ffff0008 0] ------- [18:42 -1:42 9 0] 
r 0.047458597 _23_ AGT  --- 18 message 209 [0 13000000 ffff0008 0] ------- [18:42 -1:42 9 0] 
r 0.047458597 _13_ AGT  --- 18 message 209 [0 13000000 ffff0008 0] ------- [18:42 -1:42 9 0] 
r 0.047458599 _9_ MAC  --- 18 message 209 [0 13000000 ffff0008 0] ------- [18:42 -1:42 9 0] 
r 0.047458599 _17_ MAC  --- 18 message 209 [0 13000000 ffff0008 0] ------- [18:42 -1:42 9 0] 
r 0.047458599 _9_ AGT  --- 18 message 209 [0 13000000 ffff0008 0] ------- [18:42 -1:42 9 0] 
s 0.047458599 _9_ AGT  --- 18 message 209 [0 13000000 ffff0008 0] ------- [18:42 -1:42 8 0] 
r 0.047458599 _17_ AGT  --- 18 message 209 [0 13000000 ffff0008 0] ------- [18:42 -1:42 9 0] 
r 0.047458599 _8_ MAC  --- 18 message 209 [0 13000000 ffff0008 0] ------- [18:42 -1:42 9 0] 
r 0.047458599 _22_ MAC  --- 18 message 209 [0 13000000 ffff0008 0] ------- [18:42 -1:42 9 0] 
r 0.047458599 _12_ MAC  --- 18 message 209 [0 13000000 ffff0008 0] ------- [18:42 -1:42 9 0] 
r 0.047458599 _8_ AGT  --- 18 message 209 [0 13000000 ffff0008 0] ------- [18:42 -1:42 9 0] 
s 0.047458599 _8_ AGT  --- 18 message 209 [0 13000000 ffff0008 0] ------- [18:42 -1:42 8 0] 
r 0.047458599 _22_ AGT  --- 18 message 209 [0 13000000 ffff0008 0] ------- [18:42 -1:42 9 0] 
s 0.047458599 _22_ AGT  --- 18 message 209 [0 13000000 ffff0008 0] ------- [18:42 -1:42 8 0] 
r 0.047458599 _12_ AGT  --- 18 message 209 [0 13000000 ffff0008 0] ------- [18:42 -1:42 9 0] 
s 0.047458599 _12_ AGT  --- 18 message 209 [0 13000000 ffff0008 0] ------- [18:42 -1:42 8 0] 
r 0.047458601 _7_ MAC  --- 18 message 209 [0 13000000 ffff0008 0] ------- [18:42 -1:42 9 0] 
r 0.047458601 _7_ AGT  --- 18 message 209 [0 13000000 ffff0008 0] ------- [18:42 -1:42 9 0] 
s 0.047458601 _7_ AGT  --- 18 message 209 [0 13000000 ffff0008 0] ------- [18:42 -1:42 8 0] 
r 0.047458602 _4_ MAC  --- 18 message 209 [0 13000000 ffff0008 0] ------- [18:42 -1:42 9 0] 
r 0.047458602 _16_ MAC  --- 18 message 209 [0 13000000 ffff0008 0] ------- [18:42 -1:42 9 0] 
r 0.047458602 _4_ AGT  --- 18 message 209 [0 13000000 ffff0008 0] ------- [18:42 -1:42 9 0] 
s 0.047458602 _4_ AGT  --- 18 message 209 [0 13000000 ffff0008 0] ------- [18:42 -1:42 8 0] 
r 0.047458602 _16_ AGT  --- 18 message 209 [0 13000000 ffff0008 0] ------- [18:42 -1:42 9 0] 
s 0.047458602 _16_ AGT  --- 18 message 209 [0 13000000 ffff0008 0] ------- [18:42 -1:42 8 0] 
r 0.047458603 _3_ MAC  --- 18 message 209 [0 13000000 ffff0008 0] ------- [18:42 -1:42 9 0] 
r 0.047458603 _21_ MAC  --- 18 message 209 [0 13000000 ffff0008 0] ------- [18:42 -1:42 9 0] 
r 0.047458603 _11_ MAC  --- 18 message 209 [0 13000000 ffff0008 0] ------- [18:42 -1:42 9 0] 
r 0.047458603 _3_ AGT  --- 18 message 209 [0 13000000 ffff0008 0] ------- [18:42 -1:42 9 0] 
s 0.047458603 _3_ AGT  --- 18 message 209 [0 13000000 ffff0008 0] ------- [18:42 -1:42 8 0] 
r 0.047458603 _21_ AGT  --- 18 message 209 [0 13000000 ffff0008 0] ------- [18:42 -1:42 9 0] 
s 0.047458603 _21_ AGT  --- 18 message 209 [0 13000000 ffff0008 0] ------- [18:42 -1:42 8 0] 
r 0.047458603 _11_ AGT  --- 18 message 209 [0 13000000 ffff0008 0] ------- [18:42 -1:42 9 0] 
s 0.047458603 _11_ AGT  --- 18 message 209 [0 13000000 ffff0008 0] ------- [18:42 -1:42 8 0] 
r 0.047458604 _2_ MAC  --- 18 message 209 [0 13000000 ffff0008 0] ------- [18:42 -1:42 9 0] 
r 0.047458604 _6_ MAC  --- 18 message 209 [0 13000000 ffff0008 0] ------- [18:42 -1:42 9 0] 
r 0.047458604 _2_ AGT  --- 18 message 209 [0 13000000 ffff0008 0] ------- [18:42 -1:42 9 0] 
s 0.047458604 _2_ AGT  --- 18 message 209 [0 13000000 ffff0008 0] ------- [18:42 -1:42 8 0] 
r 0.047458604 _6_ AGT  --- 18 message 209 [0 13000000 ffff0008 0] ------- [18:42 -1:42 9 0] 
s 0.047458604 _6_ AGT  --- 18 message 209 [0 13000000 ffff0008 0] ------- [18:42 -1:42 8 0] 
r 0.047458605 _15_ MAC  --- 18 message 209 [0 13000000 ffff0008 0] ------- [18:42 -1:42 9 0] 
r 0.047458605 _15_ AGT  --- 18 message 209 [0 13000000 ffff0008 0] ------- [18:42 -1:42 9 0] 
s 0.047458605 _15_ AGT  --- 18 message 209 [0 13000000 ffff0008 0] ------- [18:42 -1:42 8 0] 
r 0.047458606 _20_ MAC  --- 18 message 209 [0 13000000 ffff0008 0] ------- [18:42 -1:42 9 0] 
r 0.047458606 _10_ MAC  --- 18 message 209 [0 13000000 ffff0008 0] ------- [18:42 -1:42 9 0] 
r 0.047458606 _20_ AGT  --- 18 message 209 [0 13000000 ffff0008 0] ------- [18:42 -1:42 9 0] 
s 0.047458606 _20_ AGT  --- 18 message 209 [0 13000000 ffff0008 0] ------- [18:42 -1:42 8 0] 
r 0.047458606 _10_ AGT  --- 18 message 209 [0 13000000 ffff0008 0] ------- [18:42 -1:42 9 0] 
s 0.047458606 _10_ AGT  --- 18 message 209 [0 13000000 ffff0008 0] ------- [18:42 -1:42 8 0] 
r 0.047458606 _1_ MAC  --- 18 message 209 [0 13000000 ffff0008 0] ------- [18:42 -1:42 9 0] 
r 0.047458606 _1_ AGT  --- 18 message 209 [0 13000000 ffff0008 0] ------- [18:42 -1:42 9 0] 
s 0.047458606 _1_ AGT  --- 18 message 209 [0 13000000 ffff0008 0] ------- [18:42 -1:42 8 0] 
r 0.047458607 _5_ MAC  --- 18 message 209 [0 13000000 ffff0008 0] ------- [18:42 -1:42 9 0] 
r 0.047458607 _5_ AGT  --- 18 message 209 [0 13000000 ffff0008 0] ------- [18:42 -1:42 9 0] 
s 0.047458607 _5_ AGT  --- 18 message 209 [0 13000000 ffff0008 0] ------- [18:42 -1:42 8 0] 
r 0.047458609 _0_ MAC  --- 18 message 209 [0 13000000 ffff0008 0] ------- [18:42 -1:42 9 0] 
r 0.047458609 _0_ AGT  --- 18 message 209 [0 13000000 ffff0008 0] ------- [18:42 -1:42 9 0] 
s 0.047854898 _17_ MAC  --- 18 message 209 [0 11000000 ffff0008 0] ------- [18:42 -1:42 9 0] 
s 0.047915294 _15_ MAC  --- 19 message 209 [0 f000000 ffff0008 0] ------- [19:42 -1:42 8 0] 
r 0.048263902 _18_ MAC  --- 18 message 209 [0 11000000 ffff0008 0] ------- [18:42 -1:42 9 0] 
r 0.048263902 _18_ AGT  --- 18 message 209 [0 11000000 ffff0008 0] ------- [18:42 -1:42 9 0] 
s 0.048284453 _5_ MAC  --- 19 message 209 [0 5000000 ffff0008 0] ------- [19:42 -1:42 8 0] 
s 0.048474787 _9_ MAC  --- 19 message 209 [0 9000000 ffff0008 0] ------- [19:42 -1:42 8 0] 
r 0.048693457 _0_ MAC  --- 19 message 209 [0 5000000 ffff0008 0] ------- [19:42 -1:42 8 0] 
r 0.048693457 _10_ MAC  --- 19 message 209 [0 5000000 ffff0008 0] ------- [19:42 -1:42 8 0] 
r 0.048693457 _6_ MAC  --- 19 message 209 [0 5000000 ffff0008 0] ------- [19:42 -1:42 8 0] 
r 0.048693457 _0_ AGT  --- 19 message 209 [0 5000000 ffff0008 0] ------- [19:42 -1:42 8 0] 
r 0.048693457 _10_ AGT  --- 19 message 209 [0 5000000 ffff0008 0] ------- [19:42 -1:42 8 0] 
r 0.048693457 _6_ AGT  --- 19 message 209 [0 5000000 ffff0008 0] ------- [19:42 -1:42 8 0] 
s 0.049596517 _1_ MAC  --- 19 message 209 [0 1000000 ffff0008 0] ------- [19:42 -1:42 8 0] 
r 0.050005521 _0_ MAC  --- 19 message 209 [0 1000000 ffff0008 0] ------- [19:42 -1:42 8 0] 
r 0.050005521 _6_ MAC  --- 19 message 209 [0 1000000 ffff0008 0] ------- [19:42 -1:42 8 0] 
r 0.050005521 _2_ MAC  --- 19 message 209 [0 1000000 ffff0008 0] ------- [19:42 -1:42 8 0] 
r 0.050005521 _0_ AGT  --- 19 message 209 [0 1000000 ffff0008 0] ------- [19:42 -1:42 8 0] 
r 0.050005521 _6_ AGT  --- 19 message 209 [0 1000000 ffff0008 0] ------- [19:42 -1:42 8 0] 
r 0.050005521 _2_ AGT  --- 19 message 209 [0 1000000 ffff0008 0] ------- [19:42 -1:42 8 0] 
r 0.050005522 _5_ MAC  --- 19 message 209 [0 1000000 ffff0008 0] ------- [19:42 -1:42 8 0] 
r 0.050005522 _7_ MAC  --- 19 message 209 [0 1000000 ffff0008 0] ------- [19:42 -1:42 8 0] 
r 0.050005522 _5_ AGT  --- 19 message 209 [0 1000000 ffff0008 0] ------- [19:42 -1:42 8 0] 
r 0.050005522 _7_ AGT  --- 19 message 209 [0 1000000 ffff0008 0] ------- [19:42 -1:42 8 0] 
r 0.050005524 _11_ MAC  --- 19 message 209 [0 1000000 ffff0008 0] ------- [19:42 -1:42 8 0] 
r 0.050005524 _3_ MAC  --- 19 message 209 [0 1000000 ffff0008 0] ------- [19:42 -1:42 8 0] 
r 0.050005524 _11_ AGT  --- 19 message 209 [0 1000000 ffff0008 0] ------- [19:42 -1:42 8 0] 
r 0.050005524 _3_ AGT  --- 19 message 209 [0 1000000 ffff0008 0] ------- [19:42 -1:42 8 0] 
r 0.050005525 _10_ MAC  --- 19 message 209 [0 1000000 ffff0008 0] ------- [19:42 -1:42 8 0] 
r 0.050005525 _12_ MAC  --- 19 message 209 [0 1000000 ffff0008 0] ------- [19:42 -1:42 8 0] 
r 0.050005525 _8_ MAC  --- 19 message 209 [0 1000000 ffff0008 0] ------- [19:42 -1:42 8 0] 
r 0.050005525 _10_ AGT  --- 19 message 209 [0 1000000 ffff0008 0] ------- [19:42 -1:42 8 0] 
r 0.050005525 _12_ AGT  --- 19 message 209 [0 1000000 ffff0008 0] ------- [19:42 -1:42 8 0] 
r 0.050005525 _8_ AGT  --- 19 message 209 [0 1000000 ffff0008 0] ------- [19:42 -1:42 8 0] 
r 0.050005527 _13_ MAC  --- 19 message 209 [0 1000000 ffff0008 0] ------- [19:42 -1:42 8 0] 
r 0.050005527 _13_ AGT  --- 19 message 209 [0 1000000 ffff0008 0] ------- [19:42 -1:42 8 0] 
r 0.050005527 _16_ MAC  --- 19 message 209 [0 1000000 ffff0008 0] ------- [19:42 -1:42 8 0] 
r 0.050005527 _4_ MAC  --- 19 message 209 [0 1000000 ffff0008 0] ------- [19:42 -1:42 8 0] 
r 0.050005527 _16_ AGT  --- 19 message 209 [0 1000000 ffff0008 0] ------- [19:42 -1:42 8 0] 
r 0.050005527 _4_ AGT  --- 19 message 209 [0 1000000 ffff0008 0] ------- [19:42 -1:42 8 0] 
r 0.050005528 _15_ MAC  --- 19 message 209 [0 1000000 ffff0008 0] ------- [19:42 -1:42 8 0] 
r 0.050005528 _17_ MAC  --- 19 message 209 [0 1000000 ffff0008 0] ------- [19:42 -1:42 8 0] 
r 0.050005528 _9_ MAC  --- 19 message 209 [0 1000000 ffff0008 0] ------- [19:42 -1:42 8 0] 
r 0.050005528 _15_ AGT  --- 19 message 209 [0 1000000 ffff0008 0] ------- [19:42 -1:42 8 0] 
r 0.050005528 _17_ AGT  --- 19 message 209 [0 1000000 ffff0008 0] ------- [19:42 -1:42 8 0] 
r 0.050005528 _9_ AGT  --- 19 message 209 [0 1000000 ffff0008 0] ------- [19:42 -1:42 8 0] 
r 0.050005529 _18_ MAC  --- 19 message 209 [0 1000000 ffff0008 0] ------- [19:42 -1:42 8 0] 
r 0.050005529 _14_ MAC  --- 19 message 209 [0 1000000 ffff0008 0] ------- [19:42 -1:42 8 0] 
r 0.050005529 _18_ AGT  --- 19 message 209 [0 1000000 ffff0008 0] ------- [19:42 -1:42 8 0] 
r 0.050005529 _14_ AGT  --- 19 message 209 [0 1000000 ffff0008 0] ------- [19:42 -1:42 8 0] 
r 0.050005531 _21_ MAC  --- 19 message 209 [0 1000000 ffff0008 0] ------- [19:42 -1:42 8 0] 
r 0.050005531 _21_ AGT  --- 19 message 209 [0 1000000 ffff0008 0] ------- [19:42 -1:42 8 0] 
r 0.050005531 _20_ MAC  --- 19 message 209 [0 1000000 ffff0008 0] ------- [19:42 -1:42 8 0] 
r 0.050005531 _22_ MAC  --- 19 message 209 [0 1000000 ffff0008 0] ------- [19:42 -1:42 8 0] 
r 0.050005531 _20_ AGT  --- 19 message 209 [0 1000000 ffff0008 0] ------- [19:42 -1:42 8 0] 
r 0.050005531 _22_ AGT  --- 19 message 209 [0 1000000 ffff0008 0] ------- [19:42 -1:42 8 0] 
r 0.050005531 _19_ MAC  --- 19 message 209 [0 1000000 ffff0008 0] ------- [19:42 -1:42 8 0] 
r 0.050005531 _19_ AGT  --- 19 message 209 [0 1000000 ffff0008 0] ------- [19:42 -1:42 8 0] 
r 0.050005532 _23_ MAC  --- 19 message 209 [0 1000000 ffff0008 0] ------- [19:42 -1:42 8 0] 
r 0.050005532 _23_ AGT  --- 19 message 209 [0 1000000 ffff0008 0] ------- [19:42 -1:42 8 0] 
r 0.050005534 _24_ MAC  --- 19 message 209 [0 1000000 ffff0008 0] ------- [19:42 -1:42 8 0] 
r 0.050005534 _24_ AGT  --- 19 message 209 [0 1000000 ffff0008 0] ------- [19:42 -1:42 8 0] 
s 0.050434023 _23_ MAC  --- 19 message 209 [0 17000000 ffff0008 0] ------- [19:42 -1:42 9 0] 
r 0.050843026 _18_ MAC  --- 19 message 209 [0 17000000 ffff0008 0] ------- [19:42 -1:42 9 0] 
r 0.050843026 _22_ MAC  --- 19 message 209 [0 17000000 ffff0008 0] ------- [19:42 -1:42 9 0] 
r 0.050843026 _24_ MAC  --- 19 message 209 [0 17000000 ffff0008 0] ------- [19:42 -1:42 9 0] 
r 0.050843026 _18_ AGT  --- 19 message 209 [0 17000000 ffff0008 0] ------- [19:42 -1:42 9 0] 
r 0.050843026 _22_ AGT  --- 19 message 209 [0 17000000 ffff0008 0] ------- [19:42 -1:42 9 0] 
r 0.050843026 _24_ AGT  --- 19 message 209 [0 17000000 ffff0008 0] ------- [19:42 -1:42 9 0] 
r 0.050843028 _17_ MAC  --- 19 message 209 [0 17000000 ffff0008 0] ------- [19:42 -1:42 9 0] 
r 0.050843028 _19_ MAC  --- 19 message 209 [0 17000000 ffff0008 0] ------- [19:42 -1:42 9 0] 
r 0.050843028 _17_ AGT  --- 19 message 209 [0 17000000 ffff0008 0] ------- [19:42 -1:42 9 0] 
r 0.050843028 _19_ AGT  --- 19 message 209 [0 17000000 ffff0008 0] ------- [19:42 -1:42 9 0] 
r 0.050843030 _13_ MAC  --- 19 message 209 [0 17000000 ffff0008 0] ------- [19:42 -1:42 9 0] 
r 0.050843030 _21_ MAC  --- 19 message 209 [0 17000000 ffff0008 0] ------- [19:42 -1:42 9 0] 
r 0.050843030 _13_ AGT  --- 19 message 209 [0 17000000 ffff0008 0] ------- [19:42 -1:42 9 0] 
r 0.050843030 _21_ AGT  --- 19 message 209 [0 17000000 ffff0008 0] ------- [19:42 -1:42 9 0] 
r 0.050843030 _12_ MAC  --- 19 message 209 [0 17000000 ffff0008 0] ------- [19:42 -1:42 9 0] 
r 0.050843030 _16_ MAC  --- 19 message 209 [0 17000000 ffff0008 0] ------- [19:42 -1:42 9 0] 
r 0.050843030 _14_ MAC  --- 19 message 209 [0 17000000 ffff0008 0] ------- [19:42 -1:42 9 0] 
r 0.050843030 _12_ AGT  --- 19 message 209 [0 17000000 ffff0008 0] ------- [19:42 -1:42 9 0] 
r 0.050843030 _16_ AGT  --- 19 message 209 [0 17000000 ffff0008 0] ------- [19:42 -1:42 9 0] 
r 0.050843030 _14_ AGT  --- 19 message 209 [0 17000000 ffff0008 0] ------- [19:42 -1:42 9 0] 
r 0.050843032 _11_ MAC  --- 19 message 209 [0 17000000 ffff0008 0] ------- [19:42 -1:42 9 0] 
r 0.050843032 _11_ AGT  --- 19 message 209 [0 17000000 ffff0008 0] ------- [19:42 -1:42 9 0] 
r 0.050843033 _8_ MAC  --- 19 message 209 [0 17000000 ffff0008 0] ------- [19:42 -1:42 9 0] 
r 0.050843033 _20_ MAC  --- 19 message 209 [0 17000000 ffff0008 0] ------- [19:42 -1:42 9 0] 
r 0.050843033 _8_ AGT  --- 19 message 209 [0 17000000 ffff0008 0] ------- [19:42 -1:42 9 0] 
r 0.050843033 _20_ AGT  --- 19 message 209 [0 17000000 ffff0008 0] ------- [19:42 -1:42 9 0] 
r 0.050843033 _7_ MAC  --- 19 message 209 [0 17000000 ffff0008 0] ------- [19:42 -1:42 9 0] 
r 0.050843033 _15_ MAC  --- 19 message 209 [0 17000000 ffff0008 0] ------- [19:42 -1:42 9 0] 
r 0.050843033 _9_ MAC  --- 19 message 209 [0 17000000 ffff0008 0] ------- [19:42 -1:42 9 0] 
r 0.050843033 _7_ AGT  --- 19 message 209 [0 17000000 ffff0008 0] ------- [19:42 -1:42 9 0] 
r 0.050843033 _15_ AGT  --- 19 message 209 [0 17000000 ffff0008 0] ------- [19:42 -1:42 9 0] 
r 0.050843033 _9_ AGT  --- 19 message 209 [0 17000000 ffff0008 0] ------- [19:42 -1:42 9 0] 
r 0.050843035 _6_ MAC  --- 19 message 209 [0 17000000 ffff0008 0] ------- [19:42 -1:42 9 0] 
r 0.050843035 _10_ MAC  --- 19 message 209 [0 17000000 ffff0008 0] ------- [19:42 -1:42 9 0] 
r 0.050843035 _6_ AGT  --- 19 message 209 [0 17000000 ffff0008 0] ------- [19:42 -1:42 9 0] 
r 0.050843035 _10_ AGT  --- 19 message 209 [0 17000000 ffff0008 0] ------- [19:42 -1:42 9 0] 
r 0.050843036 _3_ MAC  --- 19 message 209 [0 17000000 ffff0008 0] ------- [19:42 -1:42 9 0] 
r 0.050843036 _3_ AGT  --- 19 message 209 [0 17000000 ffff0008 0] ------- [19:42 -1:42 9 0] 
r 0.050843037 _2_ MAC  --- 19 message 209 [0 17000000 ffff0008 0] ------- [19:42 -1:42 9 0] 
r 0.050843037 _4_ MAC  --- 19 message 209 [0 17000000 ffff0008 0] ------- [19:42 -1:42 9 0] 
r 0.050843037 _2_ AGT  --- 19 message 209 [0 17000000 ffff0008 0] ------- [19:42 -1:42 9 0] 
r 0.050843037 _4_ AGT  --- 19 message 209 [0 17000000 ffff0008 0] ------- [19:42 -1:42 9 0] 
r 0.050843037 _5_ MAC  --- 19 message 209 [0 17000000 ffff0008 0] ------- [19:42 -1:42 9 0] 
r 0.050843037 _5_ AGT  --- 19 message 209 [0 17000000 ffff0008 0] ------- [19:42 -1:42 9 0] 
r 0.050843038 _1_ MAC  --- 19 message 209 [0 17000000 ffff0008 0] ------- [19:42 -1:42 9 0] 
r 0.050843038 _1_ AGT  --- 19 message 209 [0 17000000 ffff0008 0] ------- [19:42 -1:42 9 0] 
r 0.050843040 _0_ MAC  --- 19 message 209 [0 17000000 ffff0008 0] ------- [19:42 -1:42 9 0] 
r 0.050843040 _0_ AGT  --- 19 message 209 [0 17000000 ffff0008 0] ------- [19:42 -1:42 9 0] 