s 0.000000000 _1_ AGT  --- 1 message 209 [0 0 0 0] ------- [1:42 -1:42 10 0] 
s 0.000000000 _2_ AGT  --- 2 message 209 [0 0 0 0] ------- [2:42 -1:42 10 0] 
s 0.000000000 _3_ AGT  --- 3 message 209 [0 0 0 0] ------- [3:42 -1:42 10 0] 
s 0.000000000 _4_ AGT  --- 4 message 209 [0 0 0 0] ------- [4:42 -1:42 10 0] 
s 0.000000000 _5_ AGT  --- 5 message 209 [0 0 0 0] ------- [5:42 -1:42 10 0] 
s 0.000000000 _6_ AGT  --- 6 message 209 [0 0 0 0] ------- [6:42 -1:42 10 0] 
s 0.000000000 _7_ AGT  --- 7 message 209 [0 0 0 0] ------- [7:42 -1:42 10 0] 
s 0.000000000 _8_ AGT  --- 8 message 209 [0 0 0 0] ------- [8:42 -1:42 10 0] 
s 0.000000000 _9_ AGT  --- 9 message 209 [0 0 0 0] ------- [9:42 -1:42 10 0] 
s 0.000000000 _10_ AGT  --- 10 message 209 [0 0 0 0] ------- [10:42 -1:42 10 0] 
s 0.000000000 _11_ AGT  --- 11 message 209 [0 0 0 0] ------- [11:42 -1:42 10 0] 
s 0.000000000 _12_ AGT  --- 12 message 209 [0 0 0 0] ------- [12:42 -1:42 10 0] 
s 0.000000000 _13_ AGT  --- 13 message 209 [0 0 0 0] ------- [13:42 -1:42 10 0] 
s 0.000000000 _14_ AGT  --- 14 message 209 [0 0 0 0] ------- [14:42 -1:42 10 0] 
s 0.000000000 _15_ AGT  --- 15 message 209 [0 0 0 0] ------- [15:42 -1:42 10 0] 
s 0.080000000 _1_ AGT  --- 17 message 209 [0 0 0 0] ------- [1:42 -1:42 10 0] 
s 0.080000000 _2_ AGT  --- 18 message 209 [0 0 0 0] ------- [2:42 -1:42 10 0] 
s 0.080000000 _3_ AGT  --- 19 message 209 [0 0 0 0] ------- [3:42 -1:42 10 0] 
s 0.080000000 _4_ AGT  --- 20 message 209 [0 0 0 0] ------- [4:42 -1:42 10 0] 
s 0.080000000 _5_ AGT  --- 21 message 209 [0 0 0 0] ------- [5:42 -1:42 10 0] 
s 0.080000000 _6_ AGT  --- 22 message 209 [0 0 0 0] ------- [6:42 -1:42 10 0] 
s 0.080000000 _7_ AGT  --- 23 message 209 [0 0 0 0] ------- [7:42 -1:42 10 0] 
s 0.080000000 _8_ AGT  --- 24 message 209 [0 0 0 0] ------- [8:42 -1:42 10 0] 
s 0.080000000 _9_ AGT  --- 25 message 209 [0 0 0 0] ------- [9:42 -1:42 10 0] 
s 0.080000000 _10_ AGT  --- 26 message 209 [0 0 0 0] ------- [10:42 -1:42 10 0] 
s 0.080000000 _11_ AGT  --- 27 message 209 [0 0 0 0] ------- [11:42 -1:42 10 0] 
s 0.080000000 _12_ AGT  --- 28 message 209 [0 0 0 0] ------- [12:42 -1:42 10 0] 
s 0.080000000 _13_ AGT  --- 29 message 209 [0 0 0 0] ------- [13:42 -1:42 10 0] 
s 0.080000000 _14_ AGT  --- 30 message 209 [0 0 0 0] ------- [14:42 -1:42 10 0] 
s 0.080000000 _15_ AGT  --- 31 message 209 [0 0 0 0] ------- [15:42 -1:42 10 0] 
s 0.160000000 _1_ AGT  --- 33 message 209 [0 0 0 0] ------- [1:42 -1:42 10 0] 
s 0.160000000 _2_ AGT  --- 34 message 209 [0 0 0 0] ------- [2:42 -1:42 10 0] 
s 0.160000000 _3_ AGT  --- 35 message 209 [0 0 0 0] ------- [3:42 -1:42 10 0] 
s 0.160000000 _4_ AGT  --- 36 message 209 [0 0 0 0] ------- [4:42 -1:42 10 0] 
s 0.160000000 _5_ AGT  --- 37 message 209 [0 0 0 0] ------- [5:42 -1:42 10 0] 
s 0.160000000 _6_ AGT  --- 38 message 209 [0 0 0 0] ------- [6:42 -1:42 10 0] 
s 0.160000000 _7_ AGT  --- 39 message 209 [0 0 0 0] ------- [7:42 -1:42 10 0] 
s 0.160000000 _8_ AGT  --- 40 message 209 [0 0 0 0] ------- [8:42 -1:42 10 0] 
s 0.160000000 _9_ AGT  --- 41 message 209 [0 0 0 0] ------- [9:42 -1:42 10 0] 
s 0.160000000 _10_ AGT  --- 42 message 209 [0 0 0 0] ------- [10:42 -1:42 10 0] 
s 0.160000000 _11_ AGT  --- 43 message 209 [0 0 0 0] ------- [11:42 -1:42 10 0] 
s 0.160000000 _12_ AGT  --- 44 message 209 [0 0 0 0] ------- [12:42 -1:42 10 0] 
s 0.160000000 _13_ AGT  --- 45 message 209 [0 0 0 0] ------- [13:42 -1:42 10 0] 
s 0.160000000 _14_ AGT  --- 46 message 209 [0 0 0 0] ------- [14:42 -1:42 10 0] 
s 0.160000000 _15_ AGT  --- 47 message 209 [0 0 0 0] ------- [15:42 -1:42 10 0] 
s 0.240000000 _1_ AGT  --- 49 message 209 [0 0 0 0] ------- [1:42 -1:42 10 0] 
s 0.240000000 _2_ AGT  --- 50 message 209 [0 0 0 0] ------- [2:42 -1:42 10 0] 
s 0.240000000 _3_ AGT  --- 51 message 209 [0 0 0 0] ------- [3:42 -1:42 10 0] 
s 0.240000000 _4_ AGT  --- 52 message 209 [0 0 0 0] ------- [4:42 -1:42 10 0] 
s 0.240000000 _5_ AGT  --- 53 message 209 [0 0 0 0] ------- [5:42 -1:42 10 0] 
s 0.240000000 _6_ AGT  --- 54 message 209 [0 0 0 0] ------- [6:42 -1:42 10 0] 
s 0.240000000 _7_ AGT  --- 55 message 209 [0 0 0 0] ------- [7:42 -1:42 10 0] 
s 0.240000000 _8_ AGT  --- 56 message 209 [0 0 0 0] ------- [8:42 -1:42 10 0] 
s 0.240000000 _9_ AGT  --- 57 message 209 [0 0 0 0] ------- [9:42 -1:42 10 0] 
s 0.240000000 _10_ AGT  --- 58 message 209 [0 0 0 0] ------- [10:42 -1:42 10 0] 
s 0.240000000 _11_ AGT  --- 59 message 209 [0 0 0 0] ------- [11:42 -1:42 10 0] 
s 0.240000000 _12_ AGT  --- 60 message 209 [0 0 0 0] ------- [12:42 -1:42 10 0] 
s 0.240000000 _13_ AGT  --- 61 message 209 [0 0 0 0] ------- [13:42 -1:42 10 0] 
s 0.240000000 _14_ AGT  --- 62 message 209 [0 0 0 0] ------- [14:42 -1:42 10 0] 
s 0.240000000 _15_ AGT  --- 63 message 209 [0 0 0 0] ------- [15:42 -1:42 10 0] 
s 0.320000000 _1_ AGT  --- 65 message 209 [0 0 0 0] ------- [1:42 -1:42 10 0] 
s 0.320000000 _2_ AGT  --- 66 message 209 [0 0 0 0] ------- [2:42 -1:42 10 0] 
s 0.320000000 _3_ AGT  --- 67 message 209 [0 0 0 0] ------- [3:42 -1:42 10 0] 
s 0.320000000 _4_ AGT  --- 68 message 209 [0 0 0 0] ------- [4:42 -1:42 10 0] 
s 0.320000000 _5_ AGT  --- 69 message 209 [0 0 0 0] ------- [5:42 -1:42 10 0] 
s 0.320000000 _6_ AGT  --- 70 message 209 [0 0 0 0] ------- [6:42 -1:42 10 0] 
s 0.320000000 _7_ AGT  --- 71 message 209 [0 0 0 0] ------- [7:42 -1:42 10 0] 
s 0.320000000 _8_ AGT  --- 72 message 209 [0 0 0 0] ------- [8:42 -1:42 10 0] 
s 0.320000000 _9_ AGT  --- 73 message 209 [0 0 0 0] ------- [9:42 -1:42 10 0] 
s 0.320000000 _10_ AGT  --- 74 message 209 [0 0 0 0] ------- [10:42 -1:42 10 0] 
s 0.320000000 _11_ AGT  --- 75 message 209 [0 0 0 0] ------- [11:42 -1:42 10 0] 
s 0.320000000 _12_ AGT  --- 76 message 209 [0 0 0 0] ------- [12:42 -1:42 10 0] 
s 0.320000000 _13_ AGT  --- 77 message 209 [0 0 0 0] ------- [13:42 -1:42 10 0] 
s 0.320000000 _14_ AGT  --- 78 message 209 [0 0 0 0] ------- [14:42 -1:42 10 0] 
s 0.320000000 _15_ AGT  --- 79 message 209 [0 0 0 0] ------- [15:42 -1:42 10 0] 
s 0.400000000 _1_ AGT  --- 81 message 209 [0 0 0 0] ------- [1:42 -1:42 10 0] 
s 0.400000000 _2_ AGT  --- 82 message 209 [0 0 0 0] ------- [2:42 -1:42 10 0] 
s 0.400000000 _3_ AGT  --- 83 message 209 [0 0 0 0] ------- [3:42 -1:42 10 0] 
s 0.400000000 _4_ AGT  --- 84 message 209 [0 0 0 0] ------- [4:42 -1:42 10 0] 
s 0.400000000 _5_ AGT  --- 85 message 209 [0 0 0 0] ------- [5:42 -1:42 10 0] 
s 0.400000000 _6_ AGT  --- 86 message 209 [0 0 0 0] ------- [6:42 -1:42 10 0] 
s 0.400000000 _7_ AGT  --- 87 message 209 [0 0 0 0] ------- [7:42 -1:42 10 0] 
s 0.400000000 _8_ AGT  --- 88 message 209 [0 0 0 0] ------- [8:42 -1:42 10 0] 
s 0.400000000 _9_ AGT  --- 89 message 209 [0 0 0 0] ------- [9:42 -1:42 10 0] 
s 0.400000000 _10_ AGT  --- 90 message 209 [0 0 0 0] ------- [10:42 -1:42 10 0] 
s 0.400000000 _11_ AGT  --- 91 message 209 [0 0 0 0] ------- [11:42 -1:42 10 0] 
s 0.400000000 _12_ AGT  --- 92 message 209 [0 0 0 0] ------- [12:42 -1:42 10 0] 
s 0.400000000 _13_ AGT  --- 93 message 209 [0 0 0 0] ------- [13:42 -1:42 10 0] 
s 0.400000000 _14_ AGT  --- 94 message 209 [0 0 0 0] ------- [14:42 -1:42 10 0] 
s 0.400000000 _15_ AGT  --- 95 message 209 [0 0 0 0] ------- [15:42 -1:42 10 0] 
s 0.480000000 _1_ AGT  --- 97 message 209 [0 0 0 0] ------- [1:42 -1:42 10 0] 
s 0.480000000 _2_ AGT  --- 98 message 209 [0 0 0 0] ------- [2:42 -1:42 10 0] 
s 0.480000000 _3_ AGT  --- 99 message 209 [0 0 0 0] ------- [3:42 -1:42 10 0] 
s 0.480000000 _4_ AGT  --- 100 message 209 [0 0 0 0] ------- [4:42 -1:42 10 0] 
s 0.480000000 _5_ AGT  --- 101 message 209 [0 0 0 0] ------- [5:42 -1:42 10 0] 
s 0.480000000 _6_ AGT  --- 102 message 209 [0 0 0 0] ------- [6:42 -1:42 10 0] 
s 0.480000000 _7_ AGT  --- 103 message 209 [0 0 0 0] ------- [7:42 -1:42 10 0] 
s 0.480000000 _8_ AGT  --- 104 message 209 [0 0 0 0] ------- [8:42 -1:42 10 0] 
s 0.480000000 _9_ AGT  --- 105 message 209 [0 0 0 0] ------- [9:42 -1:42 10 0] 
s 0.480000000 _10_ AGT  --- 106 message 209 [0 0 0 0] ------- [10:42 -1:42 10 0] 
s 0.480000000 _11_ AGT  --- 107 message 209 [0 0 0 0] ------- [11:42 -1:42 10 0] 
s 0.480000000 _12_ AGT  --- 108 message 209 [0 0 0 0] ------- [12:42 -1:42 10 0] 
s 0.480000000 _13_ AGT  --- 109 message 209 [0 0 0 0] ------- [13:42 -1:42 10 0] 
s 0.480000000 _14_ AGT  --- 110 message 209 [0 0 0 0] ------- [14:42 -1:42 10 0] 
s 0.480000000 _15_ AGT  --- 111 message 209 [0 0 0 0] ------- [15:42 -1:42 10 0] 
s 0.560000000 _1_ AGT  --- 113 message 209 [0 0 0 0] ------- [1:42 -1:42 10 0] 
s 0.560000000 _2_ AGT  --- 114 message 209 [0 0 0 0] ------- [2:42 -1:42 10 0] 
s 0.560000000 _3_ AGT  --- 115 message 209 [0 0 0 0] ------- [3:42 -1:42 10 0] 
s 0.560000000 _4_ AGT  --- 116 message 209 [0 0 0 0] ------- [4:42 -1:42 10 0] 
s 0.560000000 _5_ AGT  --- 117 message 209 [0 0 0 0] ------- [5:42 -1:42 10 0] 
s 0.560000000 _6_ AGT  --- 118 message 209 [0 0 0 0] ------- [6:42 -1:42 10 0] 
s 0.560000000 _7_ AGT  --- 119 message 209 [0 0 0 0] ------- [7:42 -1:42 10 0] 
s 0.560000000 _8_ AGT  --- 120 message 209 [0 0 0 0] ------- [8:42 -1:42 10 0] 
s 0.560000000 _9_ AGT  --- 121 message 209 [0 0 0 0] ------- [9:42 -1:42 10 0] 
s 0.560000000 _10_ AGT  --- 122 message 209 [0 0 0 0] ------- [10:42 -1:42 10 0] 
s 0.560000000 _11_ AGT  --- 123 message 209 [0 0 0 0] ------- [11:42 -1:42 10 0] 
s 0.560000000 _12_ AGT  --- 124 message 209 [0 0 0 0] ------- [12:42 -1:42 10 0] 
s 0.560000000 _13_ AGT  --- 125 message 209 [0 0 0 0] ------- [13:42 -1:42 10 0] 
s 0.560000000 _14_ AGT  --- 126 message 209 [0 0 0 0] ------- [14:42 -1:42 10 0] 
s 0.560000000 _15_ AGT  --- 127 message 209 [0 0 0 0] ------- [15:42 -1:42 10 0] 
s 0.640000000 _1_ AGT  --- 129 message 209 [0 0 0 0] ------- [1:42 -1:42 10 0] 
s 0.640000000 _2_ AGT  --- 130 message 209 [0 0 0 0] ------- [2:42 -1:42 10 0] 
s 0.640000000 _3_ AGT  --- 131 message 209 [0 0 0 0] ------- [3:42 -1:42 10 0] 
s 0.640000000 _4_ AGT  --- 132 message 209 [0 0 0 0] ------- [4:42 -1:42 10 0] 
s 0.640000000 _5_ AGT  --- 133 message 209 [0 0 0 0] ------- [5:42 -1:42 10 0] 
s 0.640000000 _6_ AGT  --- 134 message 209 [0 0 0 0] ------- [6:42 -1:42 10 0] 
s 0.640000000 _7_ AGT  --- 135 message 209 [0 0 0 0] ------- [7:42 -1:42 10 0] 
s 0.640000000 _8_ AGT  --- 136 message 209 [0 0 0 0] ------- [8:42 -1:42 10 0] 
s 0.640000000 _9_ AGT  --- 137 message 209 [0 0 0 0] ------- [9:42 -1:42 10 0] 
s 0.640000000 _10_ AGT  --- 138 message 209 [0 0 0 0] ------- [10:42 -1:42 10 0] 
s 0.640000000 _11_ AGT  --- 139 message 209 [0 0 0 0] ------- [11:42 -1:42 10 0] 
s 0.640000000 _12_ AGT  --- 140 message 209 [0 0 0 0] ------- [12:42 -1:42 10 0] 
s 0.640000000 _13_ AGT  --- 141 message 209 [0 0 0 0] ------- [13:42 -1:42 10 0] 
s 0.640000000 _14_ AGT  --- 142 message 209 [0 0 0 0] ------- [14:42 -1:42 10 0] 
s 0.640000000 _15_ AGT  --- 143 message 209 [0 0 0 0] ------- [15:42 -1:42 10 0] 
s 0.720000000 _1_ AGT  --- 145 message 209 [0 0 0 0] ------- [1:42 -1:42 10 0] 
s 0.720000000 _2_ AGT  --- 146 message 209 [0 0 0 0] ------- [2:42 -1:42 10 0] 
s 0.720000000 _3_ AGT  --- 147 message 209 [0 0 0 0] ------- [3:42 -1:42 10 0] 
s 0.720000000 _4_ AGT  --- 148 message 209 [0 0 0 0] ------- [4:42 -1:42 10 0] 
s 0.720000000 _5_ AGT  --- 149 message 209 [0 0 0 0] ------- [5:42 -1:42 10 0] 
s 0.720000000 _6_ AGT  --- 150 message 209 [0 0 0 0] ------- [6:42 -1:42 10 0] 
s 0.720000000 _7_ AGT  --- 151 message 209 [0 0 0 0] ------- [7:42 -1:42 10 0] 
s 0.720000000 _8_ AGT  --- 152 message 209 [0 0 0 0] ------- [8:42 -1:42 10 0] 
s 0.720000000 _9_ AGT  --- 153 message 209 [0 0 0 0] ------- [9:42 -1:42 10 0] 
s 0.720000000 _10_ AGT  --- 154 message 209 [0 0 0 0] ------- [10:42 -1:42 10 0] 
s 0.720000000 _11_ AGT  --- 155 message 209 [0 0 0 0] ------- [11:42 -1:42 10 0] 
s 0.720000000 _12_ AGT  --- 156 message 209 [0 0 0 0] ------- [12:42 -1:42 10 0] 
s 0.720000000 _13_ AGT  --- 157 message 209 [0 0 0 0] ------- [13:42 -1:42 10 0] 
s 0.720000000 _14_ AGT  --- 158 message 209 [0 0 0 0] ------- [14:42 -1:42 10 0] 
s 0.720000000 _15_ AGT  --- 159 message 209 [0 0 0 0] ------- [15:42 -1:42 10 0] 
