n -t * -s 0  -x 0 -y 0 -Z 0 -z 2  -v circle -c black
n -t * -s 1  -x 5 -y 0 -Z 0 -z 2  -v circle -c black
n -t * -s 2  -x 10 -y 0 -Z 0 -z 2  -v circle -c black
n -t * -s 3  -x 15 -y 0 -Z 0 -z 2  -v circle -c black
n -t * -s 4  -x 20 -y 0 -Z 0 -z 2  -v circle -c black
n -t * -s 5  -x 0 -y 5 -Z 0 -z 2  -v circle -c black
n -t * -s 6  -x 5 -y 5 -Z 0 -z 2  -v circle -c black
n -t * -s 7  -x 10 -y 5 -Z 0 -z 2  -v circle -c black
n -t * -s 8  -x 15 -y 5 -Z 0 -z 2  -v circle -c black
n -t * -s 9  -x 20 -y 5 -Z 0 -z 2  -v circle -c black
n -t * -s 10  -x 0 -y 10 -Z 0 -z 2  -v circle -c black
n -t * -s 11  -x 5 -y 10 -Z 0 -z 2  -v circle -c black
n -t * -s 12  -x 10 -y 10 -Z 0 -z 2  -v circle -c black
n -t * -s 13  -x 15 -y 10 -Z 0 -z 2  -v circle -c black
n -t * -s 14  -x 20 -y 10 -Z 0 -z 2  -v circle -c black
n -t * -s 15  -x 0 -y 15 -Z 0 -z 2  -v circle -c black
n -t * -s 16  -x 5 -y 15 -Z 0 -z 2  -v circle -c black
n -t * -s 17  -x 10 -y 15 -Z 0 -z 2  -v circle -c black
n -t * -s 18  -x 15 -y 15 -Z 0 -z 2  -v circle -c black
n -t * -s 19  -x 20 -y 15 -Z 0 -z 2  -v circle -c black
n -t * -s 20  -x 0 -y 20 -Z 0 -z 2  -v circle -c black
n -t * -s 21  -x 5 -y 20 -Z 0 -z 2  -v circle -c black
n -t * -s 22  -x 10 -y 20 -Z 0 -z 2  -v circle -c black
n -t * -s 23  -x 15 -y 20 -Z 0 -z 2  -v circle -c black
n -t * -s 24  -x 20 -y 20 -Z 0 -z 2  -v circle -c black
V -t * -v 1.0a5 -a 0
W -t * -x 25 -y 25
A -t * -n 1 -p 0 -o 0x7fffffff -c 30 -a 1
A -t * -h 1 -m 1073741823 -s 0
+ -t 0.000811000 -s 0 -d -1 -p message -e 46 -c 2 -a 0 -i 5 -k AGT 
- -t 0.000811000 -s 0 -d -1 -p message -e 46 -c 2 -a 0 -i 5 -k AGT
h -t 0.000811000 -s 0 -d -1 -p message -e 46 -c 2 -a 0 -i 5 -k AGT
+ -t 0.000811000 -s 0 -d -1 -p message -e 46 -c 2 -a 0 -i 5 -k MAC 
- -t 0.000811000 -s 0 -d -1 -p message -e 46 -c 2 -a 0 -i 5 -k MAC
h -t 0.000811000 -s 0 -d -1 -p message -e 46 -c 2 -a 0 -i 5 -k MAC
r -t 0.000995017 -s 5 -d -1 -p message -e 46 -c 2 -a 0 -i 5 -k MAC
r -t 0.000995017 -s 1 -d -1 -p message -e 46 -c 2 -a 0 -i 5 -k MAC
r -t 0.000995017 -s 5 -d -1 -p message -e 46 -c 2 -a 0 -i 5 -k AGT
r -t 0.000995017 -s 1 -d -1 -p message -e 46 -c 2 -a 0 -i 5 -k AGT
d -t 0.000995024 -s 6 -d -1 -p message -e 46 -c 2 -a 0 -i 5 -k MAC
r -t 0.000995033 -s 10 -d -1 -p message -e 46 -c 2 -a 0 -i 5 -k MAC
d -t 0.000995033 -s 2 -d -1 -p message -e 46 -c 2 -a 0 -i 5 -k MAC
r -t 0.000995033 -s 10 -d -1 -p message -e 46 -c 2 -a 0 -i 5 -k AGT
r -t 0.000995037 -s 11 -d -1 -p message -e 46 -c 2 -a 0 -i 5 -k MAC
r -t 0.000995037 -s 7 -d -1 -p message -e 46 -c 2 -a 0 -i 5 -k MAC
r -t 0.000995037 -s 11 -d -1 -p message -e 46 -c 2 -a 0 -i 5 -k AGT
r -t 0.000995037 -s 7 -d -1 -p message -e 46 -c 2 -a 0 -i 5 -k AGT
d -t 0.000995047 -s 12 -d -1 -p message -e 46 -c 2 -a 0 -i 5 -k MAC
d -t 0.000995050 -s 15 -d -1 -p message -e 46 -c 2 -a 0 -i 5 -k MAC
r -t 0.000995050 -s 3 -d -1 -p message -e 46 -c 2 -a 0 -i 5 -k MAC
r -t 0.000995050 -s 3 -d -1 -p message -e 46 -c 2 -a 0 -i 5 -k AGT
d -t 0.000995053 -s 16 -d -1 -p message -e 46 -c 2 -a 0 -i 5 -k MAC
d -t 0.000995053 -s 8 -d -1 -p message -e 46 -c 2 -a 0 -i 5 -k MAC
d -t 0.000995060 -s 17 -d -1 -p message -e 46 -c 2 -a 0 -i 5 -k MAC
r -t 0.000995060 -s 13 -d -1 -p message -e 46 -c 2 -a 0 -i 5 -k MAC
r -t 0.000995060 -s 13 -d -1 -p message -e 46 -c 2 -a 0 -i 5 -k AGT
d -t 0.000995067 -s 20 -d -1 -p message -e 46 -c 2 -a 0 -i 5 -k MAC
d -t 0.000995067 -s 4 -d -1 -p message -e 46 -c 2 -a 0 -i 5 -k MAC
d -t 0.000995069 -s 21 -d -1 -p message -e 46 -c 2 -a 0 -i 5 -k MAC
d -t 0.000995069 -s 9 -d -1 -p message -e 46 -c 2 -a 0 -i 5 -k MAC
r -t 0.000995071 -s 18 -d -1 -p message -e 46 -c 2 -a 0 -i 5 -k MAC
r -t 0.000995071 -s 18 -d -1 -p message -e 46 -c 2 -a 0 -i 5 -k AGT
d -t 0.000995075 -s 22 -d -1 -p message -e 46 -c 2 -a 0 -i 5 -k MAC
d -t 0.000995075 -s 14 -d -1 -p message -e 46 -c 2 -a 0 -i 5 -k MAC
d -t 0.000995083 -s 23 -d -1 -p message -e 46 -c 2 -a 0 -i 5 -k MAC
d -t 0.000995083 -s 19 -d -1 -p message -e 46 -c 2 -a 0 -i 5 -k MAC
d -t 0.000995094 -s 24 -d -1 -p message -e 46 -c 2 -a 0 -i 5 -k MAC
+ -t 0.001574000 -s 0 -d -1 -p message -e 46 -c 2 -a 0 -i 6 -k AGT 
- -t 0.001574000 -s 0 -d -1 -p message -e 46 -c 2 -a 0 -i 6 -k AGT
h -t 0.001574000 -s 0 -d -1 -p message -e 46 -c 2 -a 0 -i 6 -k AGT
+ -t 0.001574000 -s 0 -d -1 -p message -e 46 -c 2 -a 0 -i 6 -k MAC 
- -t 0.001574000 -s 0 -d -1 -p message -e 46 -c 2 -a 0 -i 6 -k MAC
h -t 0.001574000 -s 0 -d -1 -p message -e 46 -c 2 -a 0 -i 6 -k MAC
r -t 0.001758017 -s 5 -d -1 -p message -e 46 -c 2 -a 0 -i 6 -k MAC
r -t 0.001758017 -s 1 -d -1 -p message -e 46 -c 2 -a 0 -i 6 -k MAC
r -t 0.001758017 -s 5 -d -1 -p message -e 46 -c 2 -a 0 -i 6 -k AGT
r -t 0.001758017 -s 1 -d -1 -p message -e 46 -c 2 -a 0 -i 6 -k AGT
r -t 0.001758024 -s 6 -d -1 -p message -e 46 -c 2 -a 0 -i 6 -k MAC
r -t 0.001758024 -s 6 -d -1 -p message -e 46 -c 2 -a 0 -i 6 -k AGT
r -t 0.001758033 -s 10 -d -1 -p message -e 46 -c 2 -a 0 -i 6 -k MAC
d -t 0.001758033 -s 2 -d -1 -p message -e 46 -c 2 -a 0 -i 6 -k MAC
r -t 0.001758033 -s 10 -d -1 -p message -e 46 -c 2 -a 0 -i 6 -k AGT
r -t 0.001758037 -s 11 -d -1 -p message -e 46 -c 2 -a 0 -i 6 -k MAC
d -t 0.001758037 -s 7 -d -1 -p message -e 46 -c 2 -a 0 -i 6 -k MAC
r -t 0.001758037 -s 11 -d -1 -p message -e 46 -c 2 -a 0 -i 6 -k AGT
r -t 0.001758047 -s 12 -d -1 -p message -e 46 -c 2 -a 0 -i 6 -k MAC
r -t 0.001758047 -s 12 -d -1 -p message -e 46 -c 2 -a 0 -i 6 -k AGT
d -t 0.001758050 -s 15 -d -1 -p message -e 46 -c 2 -a 0 -i 6 -k MAC
d -t 0.001758050 -s 3 -d -1 -p message -e 46 -c 2 -a 0 -i 6 -k MAC
d -t 0.001758053 -s 16 -d -1 -p message -e 46 -c 2 -a 0 -i 6 -k MAC
d -t 0.001758053 -s 8 -d -1 -p message -e 46 -c 2 -a 0 -i 6 -k MAC
d -t 0.001758060 -s 17 -d -1 -p message -e 46 -c 2 -a 0 -i 6 -k MAC
d -t 0.001758060 -s 13 -d -1 -p message -e 46 -c 2 -a 0 -i 6 -k MAC
d -t 0.001758067 -s 20 -d -1 -p message -e 46 -c 2 -a 0 -i 6 -k MAC
d -t 0.001758067 -s 4 -d -1 -p message -e 46 -c 2 -a 0 -i 6 -k MAC
d -t 0.001758069 -s 21 -d -1 -p message -e 46 -c 2 -a 0 -i 6 -k MAC
d -t 0.001758069 -s 9 -d -1 -p message -e 46 -c 2 -a 0 -i 6 -k MAC
d -t 0.001758071 -s 18 -d -1 -p message -e 46 -c 2 -a 0 -i 6 -k MAC
d -t 0.001758075 -s 22 -d -1 -p message -e 46 -c 2 -a 0 -i 6 -k MAC
d -t 0.001758075 -s 14 -d -1 -p message -e 46 -c 2 -a 0 -i 6 -k MAC
r -t 0.001758083 -s 23 -d -1 -p message -e 46 -c 2 -a 0 -i 6 -k MAC
d -t 0.001758083 -s 19 -d -1 -p message -e 46 -c 2 -a 0 -i 6 -k MAC
r -t 0.001758083 -s 23 -d -1 -p message -e 46 -c 2 -a 0 -i 6 -k AGT
d -t 0.001758094 -s 24 -d -1 -p message -e 46 -c 2 -a 0 -i 6 -k MAC
+ -t 0.003011631 -s 5 -d -1 -p message -e 46 -c 2 -a 0 -i 6 -k AGT 
- -t 0.003011631 -s 5 -d -1 -p message -e 46 -c 2 -a 0 -i 6 -k AGT
h -t 0.003011631 -s 5 -d -1 -p message -e 46 -c 2 -a 0 -i 6 -k AGT
+ -t 0.003011631 -s 5 -d -1 -p message -e 46 -c 2 -a 0 -i 6 -k MAC 
- -t 0.003011631 -s 5 -d -1 -p message -e 46 -c 2 -a 0 -i 6 -k MAC
h -t 0.003011631 -s 5 -d -1 -p message -e 46 -c 2 -a 0 -i 6 -k MAC
r -t 0.003195648 -s 0 -d -1 -p message -e 46 -c 2 -a 0 -i 6 -k MAC
r -t 0.003195648 -s 10 -d -1 -p message -e 46 -c 2 -a 0 -i 6 -k MAC
r -t 0.003195648 -s 6 -d -1 -p message -e 46 -c 2 -a 0 -i 6 -k MAC
r -t 0.003195648 -s 0 -d -1 -p message -e 46 -c 2 -a 0 -i 6 -k AGT
r -t 0.003195648 -s 10 -d -1 -p message -e 46 -c 2 -a 0 -i 6 -k AGT
r -t 0.003195648 -s 6 -d -1 -p message -e 46 -c 2 -a 0 -i 6 -k AGT
d -t 0.003195655 -s 1 -d -1 -p message -e 46 -c 2 -a 0 -i 6 -k MAC
r -t 0.003195655 -s 11 -d -1 -p message -e 46 -c 2 -a 0 -i 6 -k MAC
r -t 0.003195655 -s 11 -d -1 -p message -e 46 -c 2 -a 0 -i 6 -k AGT
r -t 0.003195665 -s 15 -d -1 -p message -e 46 -c 2 -a 0 -i 6 -k MAC
d -t 0.003195665 -s 7 -d -1 -p message -e 46 -c 2 -a 0 -i 6 -k MAC
r -t 0.003195665 -s 15 -d -1 -p message -e 46 -c 2 -a 0 -i 6 -k AGT
d -t 0.003195668 -s 16 -d -1 -p message -e 46 -c 2 -a 0 -i 6 -k MAC
r -t 0.003195668 -s 2 -d -1 -p message -e 46 -c 2 -a 0 -i 6 -k MAC
d -t 0.003195668 -s 12 -d -1 -p message -e 46 -c 2 -a 0 -i 6 -k MAC
r -t 0.003195668 -s 2 -d -1 -p message -e 46 -c 2 -a 0 -i 6 -k AGT
d -t 0.003195678 -s 17 -d -1 -p message -e 46 -c 2 -a 0 -i 6 -k MAC
d -t 0.003195681 -s 20 -d -1 -p message -e 46 -c 2 -a 0 -i 6 -k MAC
d -t 0.003195681 -s 8 -d -1 -p message -e 46 -c 2 -a 0 -i 6 -k MAC
d -t 0.003195684 -s 21 -d -1 -p message -e 46 -c 2 -a 0 -i 6 -k MAC
d -t 0.003195684 -s 3 -d -1 -p message -e 46 -c 2 -a 0 -i 6 -k MAC
r -t 0.003195684 -s 13 -d -1 -p message -e 46 -c 2 -a 0 -i 6 -k MAC
r -t 0.003195684 -s 13 -d -1 -p message -e 46 -c 2 -a 0 -i 6 -k AGT
d -t 0.003195691 -s 22 -d -1 -p message -e 46 -c 2 -a 0 -i 6 -k MAC
d -t 0.003195691 -s 18 -d -1 -p message -e 46 -c 2 -a 0 -i 6 -k MAC
d -t 0.003195698 -s 9 -d -1 -p message -e 46 -c 2 -a 0 -i 6 -k MAC
d -t 0.003195700 -s 4 -d -1 -p message -e 46 -c 2 -a 0 -i 6 -k MAC
d -t 0.003195700 -s 14 -d -1 -p message -e 46 -c 2 -a 0 -i 6 -k MAC
d -t 0.003195702 -s 23 -d -1 -p message -e 46 -c 2 -a 0 -i 6 -k MAC
d -t 0.003195706 -s 19 -d -1 -p message -e 46 -c 2 -a 0 -i 6 -k MAC
d -t 0.003195715 -s 24 -d -1 -p message -e 46 -c 2 -a 0 -i 6 -k MAC
+ -t 0.003563845 -s 10 -d -1 -p message -e 46 -c 2 -a 0 -i 6 -k AGT 
- -t 0.003563845 -s 10 -d -1 -p message -e 46 -c 2 -a 0 -i 6 -k AGT
h -t 0.003563845 -s 10 -d -1 -p message -e 46 -c 2 -a 0 -i 6 -k AGT
+ -t 0.003563845 -s 10 -d -1 -p message -e 46 -c 2 -a 0 -i 6 -k MAC 
- -t 0.003563845 -s 10 -d -1 -p message -e 46 -c 2 -a 0 -i 6 -k MAC
h -t 0.003563845 -s 10 -d -1 -p message -e 46 -c 2 -a 0 -i 6 -k MAC
+ -t 0.003613933 -s 11 -d -1 -p message -e 46 -c 2 -a 0 -i 6 -k AGT 
- -t 0.003613933 -s 11 -d -1 -p message -e 46 -c 2 -a 0 -i 6 -k AGT
h -t 0.003613933 -s 11 -d -1 -p message -e 46 -c 2 -a 0 -i 6 -k AGT
r -t 0.003747861 -s 5 -d -1 -p message -e 46 -c 2 -a 0 -i 6 -k MAC
r -t 0.003747861 -s 15 -d -1 -p message -e 46 -c 2 -a 0 -i 6 -k MAC
r -t 0.003747861 -s 11 -d -1 -p message -e 46 -c 2 -a 0 -i 6 -k MAC
r -t 0.003747861 -s 5 -d -1 -p message -e 46 -c 2 -a 0 -i 6 -k AGT
r -t 0.003747861 -s 15 -d -1 -p message -e 46 -c 2 -a 0 -i 6 -k AGT
r -t 0.003747861 -s 11 -d -1 -p message -e 46 -c 2 -a 0 -i 6 -k AGT
r -t 0.003747868 -s 6 -d -1 -p message -e 46 -c 2 -a 0 -i 6 -k MAC
r -t 0.003747868 -s 16 -d -1 -p message -e 46 -c 2 -a 0 -i 6 -k MAC
r -t 0.003747868 -s 6 -d -1 -p message -e 46 -c 2 -a 0 -i 6 -k AGT
r -t 0.003747868 -s 16 -d -1 -p message -e 46 -c 2 -a 0 -i 6 -k AGT
r -t 0.003747878 -s 0 -d -1 -p message -e 46 -c 2 -a 0 -i 6 -k MAC
r -t 0.003747878 -s 20 -d -1 -p message -e 46 -c 2 -a 0 -i 6 -k MAC
d -t 0.003747878 -s 12 -d -1 -p message -e 46 -c 2 -a 0 -i 6 -k MAC
r -t 0.003747878 -s 0 -d -1 -p message -e 46 -c 2 -a 0 -i 6 -k AGT
r -t 0.003747878 -s 20 -d -1 -p message -e 46 -c 2 -a 0 -i 6 -k AGT
d -t 0.003747882 -s 1 -d -1 -p message -e 46 -c 2 -a 0 -i 6 -k MAC
d -t 0.003747882 -s 21 -d -1 -p message -e 46 -c 2 -a 0 -i 6 -k MAC
d -t 0.003747882 -s 7 -d -1 -p message -e 46 -c 2 -a 0 -i 6 -k MAC
r -t 0.003747882 -s 17 -d -1 -p message -e 46 -c 2 -a 0 -i 6 -k MAC
r -t 0.003747882 -s 17 -d -1 -p message -e 46 -c 2 -a 0 -i 6 -k AGT
d -t 0.003747892 -s 2 -d -1 -p message -e 46 -c 2 -a 0 -i 6 -k MAC
d -t 0.003747892 -s 22 -d -1 -p message -e 46 -c 2 -a 0 -i 6 -k MAC
d -t 0.003747895 -s 13 -d -1 -p message -e 46 -c 2 -a 0 -i 6 -k MAC
d -t 0.003747897 -s 8 -d -1 -p message -e 46 -c 2 -a 0 -i 6 -k MAC
r -t 0.003747897 -s 18 -d -1 -p message -e 46 -c 2 -a 0 -i 6 -k MAC
r -t 0.003747897 -s 18 -d -1 -p message -e 46 -c 2 -a 0 -i 6 -k AGT
d -t 0.003747905 -s 3 -d -1 -p message -e 46 -c 2 -a 0 -i 6 -k MAC
d -t 0.003747905 -s 23 -d -1 -p message -e 46 -c 2 -a 0 -i 6 -k MAC
d -t 0.003747911 -s 14 -d -1 -p message -e 46 -c 2 -a 0 -i 6 -k MAC
d -t 0.003747913 -s 9 -d -1 -p message -e 46 -c 2 -a 0 -i 6 -k MAC
d -t 0.003747913 -s 19 -d -1 -p message -e 46 -c 2 -a 0 -i 6 -k MAC
d -t 0.003747919 -s 4 -d -1 -p message -e 46 -c 2 -a 0 -i 6 -k MAC
d -t 0.003747919 -s 24 -d -1 -p message -e 46 -c 2 -a 0 -i 6 -k MAC
+ -t 0.003797933 -s 11 -d -1 -p message -e 46 -c 2 -a 0 -i 6 -k MAC 
- -t 0.003797933 -s 11 -d -1 -p message -e 46 -c 2 -a 0 -i 6 -k MAC
h -t 0.003797933 -s 11 -d -1 -p message -e 46 -c 2 -a 0 -i 6 -k MAC
+ -t 0.003812000 -s 0 -d -1 -p message -e 46 -c 2 -a 0 -i 4 -k AGT 
- -t 0.003812000 -s 0 -d -1 -p message -e 46 -c 2 -a 0 -i 4 -k AGT
h -t 0.003812000 -s 0 -d -1 -p message -e 46 -c 2 -a 0 -i 4 -k AGT
r -t 0.003981949 -s 6 -d -1 -p message -e 46 -c 2 -a 0 -i 6 -k MAC
r -t 0.003981949 -s 10 -d -1 -p message -e 46 -c 2 -a 0 -i 6 -k MAC
r -t 0.003981949 -s 16 -d -1 -p message -e 46 -c 2 -a 0 -i 6 -k MAC
r -t 0.003981949 -s 12 -d -1 -p message -e 46 -c 2 -a 0 -i 6 -k MAC
r -t 0.003981949 -s 6 -d -1 -p message -e 46 -c 2 -a 0 -i 6 -k AGT
r -t 0.003981949 -s 10 -d -1 -p message -e 46 -c 2 -a 0 -i 6 -k AGT
r -t 0.003981949 -s 16 -d -1 -p message -e 46 -c 2 -a 0 -i 6 -k AGT
r -t 0.003981949 -s 12 -d -1 -p message -e 46 -c 2 -a 0 -i 6 -k AGT
r -t 0.003981956 -s 15 -d -1 -p message -e 46 -c 2 -a 0 -i 6 -k MAC
d -t 0.003981956 -s 5 -d -1 -p message -e 46 -c 2 -a 0 -i 6 -k MAC
r -t 0.003981956 -s 7 -d -1 -p message -e 46 -c 2 -a 0 -i 6 -k MAC
r -t 0.003981956 -s 17 -d -1 -p message -e 46 -c 2 -a 0 -i 6 -k MAC
r -t 0.003981956 -s 15 -d -1 -p message -e 46 -c 2 -a 0 -i 6 -k AGT
r -t 0.003981956 -s 7 -d -1 -p message -e 46 -c 2 -a 0 -i 6 -k AGT
r -t 0.003981956 -s 17 -d -1 -p message -e 46 -c 2 -a 0 -i 6 -k AGT
r -t 0.003981966 -s 1 -d -1 -p message -e 46 -c 2 -a 0 -i 6 -k MAC
d -t 0.003981966 -s 21 -d -1 -p message -e 46 -c 2 -a 0 -i 6 -k MAC
r -t 0.003981966 -s 13 -d -1 -p message -e 46 -c 2 -a 0 -i 6 -k MAC
r -t 0.003981966 -s 1 -d -1 -p message -e 46 -c 2 -a 0 -i 6 -k AGT
r -t 0.003981966 -s 13 -d -1 -p message -e 46 -c 2 -a 0 -i 6 -k AGT
d -t 0.003981970 -s 20 -d -1 -p message -e 46 -c 2 -a 0 -i 6 -k MAC
d -t 0.003981970 -s 0 -d -1 -p message -e 46 -c 2 -a 0 -i 6 -k MAC
d -t 0.003981970 -s 2 -d -1 -p message -e 46 -c 2 -a 0 -i 6 -k MAC
d -t 0.003981970 -s 22 -d -1 -p message -e 46 -c 2 -a 0 -i 6 -k MAC
d -t 0.003981970 -s 8 -d -1 -p message -e 46 -c 2 -a 0 -i 6 -k MAC
d -t 0.003981970 -s 18 -d -1 -p message -e 46 -c 2 -a 0 -i 6 -k MAC
r -t 0.003981980 -s 3 -d -1 -p message -e 46 -c 2 -a 0 -i 6 -k MAC
r -t 0.003981980 -s 23 -d -1 -p message -e 46 -c 2 -a 0 -i 6 -k MAC
r -t 0.003981980 -s 3 -d -1 -p message -e 46 -c 2 -a 0 -i 6 -k AGT
r -t 0.003981980 -s 23 -d -1 -p message -e 46 -c 2 -a 0 -i 6 -k AGT
d -t 0.003981983 -s 14 -d -1 -p message -e 46 -c 2 -a 0 -i 6 -k MAC
r -t 0.003981985 -s 9 -d -1 -p message -e 46 -c 2 -a 0 -i 6 -k MAC
d -t 0.003981985 -s 19 -d -1 -p message -e 46 -c 2 -a 0 -i 6 -k MAC
r -t 0.003981985 -s 9 -d -1 -p message -e 46 -c 2 -a 0 -i 6 -k AGT
d -t 0.003981993 -s 4 -d -1 -p message -e 46 -c 2 -a 0 -i 6 -k MAC
r -t 0.003981993 -s 24 -d -1 -p message -e 46 -c 2 -a 0 -i 6 -k MAC
r -t 0.003981993 -s 24 -d -1 -p message -e 46 -c 2 -a 0 -i 6 -k AGT
+ -t 0.003994810 -s 20 -d -1 -p message -e 46 -c 2 -a 0 -i 6 -k AGT 
- -t 0.003994810 -s 20 -d -1 -p message -e 46 -c 2 -a 0 -i 6 -k AGT
h -t 0.003994810 -s 20 -d -1 -p message -e 46 -c 2 -a 0 -i 6 -k AGT
+ -t 0.003994810 -s 20 -d -1 -p message -e 46 -c 2 -a 0 -i 6 -k MAC 
- -t 0.003994810 -s 20 -d -1 -p message -e 46 -c 2 -a 0 -i 6 -k MAC
h -t 0.003994810 -s 20 -d -1 -p message -e 46 -c 2 -a 0 -i 6 -k MAC
+ -t 0.003996000 -s 0 -d -1 -p message -e 46 -c 2 -a 0 -i 4 -k MAC 
- -t 0.003996000 -s 0 -d -1 -p message -e 46 -c 2 -a 0 -i 4 -k MAC
h -t 0.003996000 -s 0 -d -1 -p message -e 46 -c 2 -a 0 -i 4 -k MAC
r -t 0.004178826 -s 15 -d -1 -p message -e 46 -c 2 -a 0 -i 6 -k MAC
r -t 0.004178826 -s 21 -d -1 -p message -e 46 -c 2 -a 0 -i 6 -k MAC
r -t 0.004178826 -s 15 -d -1 -p message -e 46 -c 2 -a 0 -i 6 -k AGT
r -t 0.004178826 -s 21 -d -1 -p message -e 46 -c 2 -a 0 -i 6 -k AGT
d -t 0.004180017 -s 5 -d -1 -p message -e 46 -c 2 -a 0 -i 4 -k MAC
d -t 0.004180017 -s 1 -d -1 -p message -e 46 -c 2 -a 0 -i 4 -k MAC
d -t 0.004180024 -s 6 -d -1 -p message -e 46 -c 2 -a 0 -i 4 -k MAC
d -t 0.004180033 -s 10 -d -1 -p message -e 46 -c 2 -a 0 -i 4 -k MAC
d -t 0.004180033 -s 2 -d -1 -p message -e 46 -c 2 -a 0 -i 4 -k MAC
d -t 0.004180037 -s 11 -d -1 -p message -e 46 -c 2 -a 0 -i 4 -k MAC
d -t 0.004180037 -s 7 -d -1 -p message -e 46 -c 2 -a 0 -i 4 -k MAC
d -t 0.004180047 -s 12 -d -1 -p message -e 46 -c 2 -a 0 -i 4 -k MAC
d -t 0.004180050 -s 3 -d -1 -p message -e 46 -c 2 -a 0 -i 4 -k MAC
d -t 0.004180053 -s 16 -d -1 -p message -e 46 -c 2 -a 0 -i 4 -k MAC
d -t 0.004180053 -s 8 -d -1 -p message -e 46 -c 2 -a 0 -i 4 -k MAC
d -t 0.004180060 -s 17 -d -1 -p message -e 46 -c 2 -a 0 -i 4 -k MAC
d -t 0.004180060 -s 13 -d -1 -p message -e 46 -c 2 -a 0 -i 4 -k MAC
d -t 0.004180067 -s 20 -d -1 -p message -e 46 -c 2 -a 0 -i 4 -k MAC
d -t 0.004180067 -s 4 -d -1 -p message -e 46 -c 2 -a 0 -i 4 -k MAC
d -t 0.004180069 -s 9 -d -1 -p message -e 46 -c 2 -a 0 -i 4 -k MAC
d -t 0.004180071 -s 18 -d -1 -p message -e 46 -c 2 -a 0 -i 4 -k MAC
d -t 0.004180075 -s 22 -d -1 -p message -e 46 -c 2 -a 0 -i 4 -k MAC
d -t 0.004180075 -s 14 -d -1 -p message -e 46 -c 2 -a 0 -i 4 -k MAC
d -t 0.004180083 -s 23 -d -1 -p message -e 46 -c 2 -a 0 -i 4 -k MAC
d -t 0.004180083 -s 19 -d -1 -p message -e 46 -c 2 -a 0 -i 4 -k MAC
d -t 0.004180094 -s 24 -d -1 -p message -e 46 -c 2 -a 0 -i 4 -k MAC
+ -t 0.004281685 -s 9 -d -1 -p message -e 46 -c 2 -a 0 -i 6 -k AGT 
- -t 0.004281685 -s 9 -d -1 -p message -e 46 -c 2 -a 0 -i 6 -k AGT
h -t 0.004281685 -s 9 -d -1 -p message -e 46 -c 2 -a 0 -i 6 -k AGT
+ -t 0.004281685 -s 9 -d -1 -p message -e 46 -c 2 -a 0 -i 6 -k MAC 
- -t 0.004281685 -s 9 -d -1 -p message -e 46 -c 2 -a 0 -i 6 -k MAC
h -t 0.004281685 -s 9 -d -1 -p message -e 46 -c 2 -a 0 -i 6 -k MAC
r -t 0.004465702 -s 4 -d -1 -p message -e 46 -c 2 -a 0 -i 6 -k MAC
r -t 0.004465702 -s 8 -d -1 -p message -e 46 -c 2 -a 0 -i 6 -k MAC
r -t 0.004465702 -s 14 -d -1 -p message -e 46 -c 2 -a 0 -i 6 -k MAC
r -t 0.004465702 -s 4 -d -1 -p message -e 46 -c 2 -a 0 -i 6 -k AGT
r -t 0.004465702 -s 8 -d -1 -p message -e 46 -c 2 -a 0 -i 6 -k AGT
r -t 0.004465702 -s 14 -d -1 -p message -e 46 -c 2 -a 0 -i 6 -k AGT
r -t 0.004465709 -s 13 -d -1 -p message -e 46 -c 2 -a 0 -i 6 -k MAC
r -t 0.004465709 -s 3 -d -1 -p message -e 46 -c 2 -a 0 -i 6 -k MAC
r -t 0.004465709 -s 13 -d -1 -p message -e 46 -c 2 -a 0 -i 6 -k AGT
r -t 0.004465709 -s 3 -d -1 -p message -e 46 -c 2 -a 0 -i 6 -k AGT
d -t 0.004465719 -s 7 -d -1 -p message -e 46 -c 2 -a 0 -i 6 -k MAC
d -t 0.004465719 -s 19 -d -1 -p message -e 46 -c 2 -a 0 -i 6 -k MAC
r -t 0.004465723 -s 18 -d -1 -p message -e 46 -c 2 -a 0 -i 6 -k MAC
d -t 0.004465723 -s 12 -d -1 -p message -e 46 -c 2 -a 0 -i 6 -k MAC
r -t 0.004465723 -s 2 -d -1 -p message -e 46 -c 2 -a 0 -i 6 -k MAC
r -t 0.004465723 -s 18 -d -1 -p message -e 46 -c 2 -a 0 -i 6 -k AGT
r -t 0.004465723 -s 2 -d -1 -p message -e 46 -c 2 -a 0 -i 6 -k AGT
d -t 0.004465732 -s 17 -d -1 -p message -e 46 -c 2 -a 0 -i 6 -k MAC
d -t 0.004465735 -s 6 -d -1 -p message -e 46 -c 2 -a 0 -i 6 -k MAC
r -t 0.004465735 -s 24 -d -1 -p message -e 46 -c 2 -a 0 -i 6 -k MAC
r -t 0.004465735 -s 24 -d -1 -p message -e 46 -c 2 -a 0 -i 6 -k AGT
d -t 0.004465738 -s 23 -d -1 -p message -e 46 -c 2 -a 0 -i 6 -k MAC
r -t 0.004465738 -s 11 -d -1 -p message -e 46 -c 2 -a 0 -i 6 -k MAC
r -t 0.004465738 -s 1 -d -1 -p message -e 46 -c 2 -a 0 -i 6 -k MAC
r -t 0.004465738 -s 11 -d -1 -p message -e 46 -c 2 -a 0 -i 6 -k AGT
r -t 0.004465738 -s 1 -d -1 -p message -e 46 -c 2 -a 0 -i 6 -k AGT
d -t 0.004465745 -s 22 -d -1 -p message -e 46 -c 2 -a 0 -i 6 -k MAC
d -t 0.004465745 -s 16 -d -1 -p message -e 46 -c 2 -a 0 -i 6 -k MAC
d -t 0.004465752 -s 5 -d -1 -p message -e 46 -c 2 -a 0 -i 6 -k MAC
d -t 0.004465754 -s 10 -d -1 -p message -e 46 -c 2 -a 0 -i 6 -k MAC
r -t 0.004465754 -s 0 -d -1 -p message -e 46 -c 2 -a 0 -i 6 -k MAC
r -t 0.004465754 -s 0 -d -1 -p message -e 46 -c 2 -a 0 -i 6 -k AGT
d -t 0.004465756 -s 21 -d -1 -p message -e 46 -c 2 -a 0 -i 6 -k MAC
d -t 0.004465760 -s 15 -d -1 -p message -e 46 -c 2 -a 0 -i 6 -k MAC
d -t 0.004465769 -s 20 -d -1 -p message -e 46 -c 2 -a 0 -i 6 -k MAC
+ -t 0.004561965 -s 3 -d -1 -p message -e 46 -c 2 -a 0 -i 5 -k AGT 
- -t 0.004561965 -s 3 -d -1 -p message -e 46 -c 2 -a 0 -i 5 -k AGT
h -t 0.004561965 -s 3 -d -1 -p message -e 46 -c 2 -a 0 -i 5 -k AGT
+ -t 0.004561965 -s 3 -d -1 -p message -e 46 -c 2 -a 0 -i 5 -k MAC 
- -t 0.004561965 -s 3 -d -1 -p message -e 46 -c 2 -a 0 -i 5 -k MAC
h -t 0.004561965 -s 3 -d -1 -p message -e 46 -c 2 -a 0 -i 5 -k MAC
+ -t 0.004653869 -s 18 -d -1 -p message -e 46 -c 2 -a 0 -i 5 -k AGT 
- -t 0.004653869 -s 18 -d -1 -p message -e 46 -c 2 -a 0 -i 5 -k AGT
h -t 0.004653869 -s 18 -d -1 -p message -e 46 -c 2 -a 0 -i 5 -k AGT
r -t 0.004745982 -s 2 -d -1 -p message -e 46 -c 2 -a 0 -i 5 -k MAC
r -t 0.004745982 -s 8 -d -1 -p message -e 46 -c 2 -a 0 -i 5 -k MAC
r -t 0.004745982 -s 4 -d -1 -p message -e 46 -c 2 -a 0 -i 5 -k MAC
r -t 0.004745982 -s 2 -d -1 -p message -e 46 -c 2 -a 0 -i 5 -k AGT
r -t 0.004745982 -s 8 -d -1 -p message -e 46 -c 2 -a 0 -i 5 -k AGT
r -t 0.004745982 -s 4 -d -1 -p message -e 46 -c 2 -a 0 -i 5 -k AGT
r -t 0.004745989 -s 7 -d -1 -p message -e 46 -c 2 -a 0 -i 5 -k MAC
r -t 0.004745989 -s 9 -d -1 -p message -e 46 -c 2 -a 0 -i 5 -k MAC
r -t 0.004745989 -s 7 -d -1 -p message -e 46 -c 2 -a 0 -i 5 -k AGT
r -t 0.004745989 -s 9 -d -1 -p message -e 46 -c 2 -a 0 -i 5 -k AGT
d -t 0.004745999 -s 1 -d -1 -p message -e 46 -c 2 -a 0 -i 5 -k MAC
d -t 0.004745999 -s 13 -d -1 -p message -e 46 -c 2 -a 0 -i 5 -k MAC
d -t 0.004746003 -s 12 -d -1 -p message -e 46 -c 2 -a 0 -i 5 -k MAC
d -t 0.004746003 -s 6 -d -1 -p message -e 46 -c 2 -a 0 -i 5 -k MAC
d -t 0.004746003 -s 14 -d -1 -p message -e 46 -c 2 -a 0 -i 5 -k MAC
d -t 0.004746013 -s 11 -d -1 -p message -e 46 -c 2 -a 0 -i 5 -k MAC
r -t 0.004746015 -s 0 -d -1 -p message -e 46 -c 2 -a 0 -i 5 -k MAC
d -t 0.004746015 -s 18 -d -1 -p message -e 46 -c 2 -a 0 -i 5 -k MAC
r -t 0.004746015 -s 0 -d -1 -p message -e 46 -c 2 -a 0 -i 5 -k AGT
d -t 0.004746018 -s 17 -d -1 -p message -e 46 -c 2 -a 0 -i 5 -k MAC
d -t 0.004746018 -s 5 -d -1 -p message -e 46 -c 2 -a 0 -i 5 -k MAC
d -t 0.004746018 -s 19 -d -1 -p message -e 46 -c 2 -a 0 -i 5 -k MAC
d -t 0.004746025 -s 16 -d -1 -p message -e 46 -c 2 -a 0 -i 5 -k MAC
d -t 0.004746025 -s 10 -d -1 -p message -e 46 -c 2 -a 0 -i 5 -k MAC
r -t 0.004746032 -s 23 -d -1 -p message -e 46 -c 2 -a 0 -i 5 -k MAC
r -t 0.004746032 -s 23 -d -1 -p message -e 46 -c 2 -a 0 -i 5 -k AGT
d -t 0.004746034 -s 22 -d -1 -p message -e 46 -c 2 -a 0 -i 5 -k MAC
d -t 0.004746034 -s 24 -d -1 -p message -e 46 -c 2 -a 0 -i 5 -k MAC
d -t 0.004746036 -s 15 -d -1 -p message -e 46 -c 2 -a 0 -i 5 -k MAC
d -t 0.004746040 -s 21 -d -1 -p message -e 46 -c 2 -a 0 -i 5 -k MAC
d -t 0.004746049 -s 20 -d -1 -p message -e 46 -c 2 -a 0 -i 5 -k MAC
+ -t 0.004837869 -s 18 -d -1 -p message -e 46 -c 2 -a 0 -i 5 -k MAC 
- -t 0.004837869 -s 18 -d -1 -p message -e 46 -c 2 -a 0 -i 5 -k MAC
h -t 0.004837869 -s 18 -d -1 -p message -e 46 -c 2 -a 0 -i 5 -k MAC
+ -t 0.004955590 -s 6 -d -1 -p message -e 46 -c 2 -a 0 -i 6 -k AGT 
- -t 0.004955590 -s 6 -d -1 -p message -e 46 -c 2 -a 0 -i 6 -k AGT
h -t 0.004955590 -s 6 -d -1 -p message -e 46 -c 2 -a 0 -i 6 -k AGT
r -t 0.005021885 -s 13 -d -1 -p message -e 46 -c 2 -a 0 -i 5 -k MAC
r -t 0.005021885 -s 17 -d -1 -p message -e 46 -c 2 -a 0 -i 5 -k MAC
r -t 0.005021885 -s 23 -d -1 -p message -e 46 -c 2 -a 0 -i 5 -k MAC
r -t 0.005021885 -s 19 -d -1 -p message -e 46 -c 2 -a 0 -i 5 -k MAC
r -t 0.005021885 -s 13 -d -1 -p message -e 46 -c 2 -a 0 -i 5 -k AGT
r -t 0.005021885 -s 17 -d -1 -p message -e 46 -c 2 -a 0 -i 5 -k AGT
r -t 0.005021885 -s 23 -d -1 -p message -e 46 -c 2 -a 0 -i 5 -k AGT
r -t 0.005021885 -s 19 -d -1 -p message -e 46 -c 2 -a 0 -i 5 -k AGT
r -t 0.005021892 -s 22 -d -1 -p message -e 46 -c 2 -a 0 -i 5 -k MAC
d -t 0.005021892 -s 12 -d -1 -p message -e 46 -c 2 -a 0 -i 5 -k MAC
r -t 0.005021892 -s 14 -d -1 -p message -e 46 -c 2 -a 0 -i 5 -k MAC
r -t 0.005021892 -s 24 -d -1 -p message -e 46 -c 2 -a 0 -i 5 -k MAC
r -t 0.005021892 -s 22 -d -1 -p message -e 46 -c 2 -a 0 -i 5 -k AGT
r -t 0.005021892 -s 14 -d -1 -p message -e 46 -c 2 -a 0 -i 5 -k AGT
r -t 0.005021892 -s 24 -d -1 -p message -e 46 -c 2 -a 0 -i 5 -k AGT
r -t 0.005021902 -s 8 -d -1 -p message -e 46 -c 2 -a 0 -i 5 -k MAC
r -t 0.005021902 -s 16 -d -1 -p message -e 46 -c 2 -a 0 -i 5 -k MAC
r -t 0.005021902 -s 8 -d -1 -p message -e 46 -c 2 -a 0 -i 5 -k AGT
r -t 0.005021902 -s 16 -d -1 -p message -e 46 -c 2 -a 0 -i 5 -k AGT
r -t 0.005021906 -s 7 -d -1 -p message -e 46 -c 2 -a 0 -i 5 -k MAC
d -t 0.005021906 -s 21 -d -1 -p message -e 46 -c 2 -a 0 -i 5 -k MAC
r -t 0.005021906 -s 11 -d -1 -p message -e 46 -c 2 -a 0 -i 5 -k MAC
d -t 0.005021906 -s 9 -d -1 -p message -e 46 -c 2 -a 0 -i 5 -k MAC
r -t 0.005021906 -s 7 -d -1 -p message -e 46 -c 2 -a 0 -i 5 -k AGT
r -t 0.005021906 -s 11 -d -1 -p message -e 46 -c 2 -a 0 -i 5 -k AGT
d -t 0.005021916 -s 6 -d -1 -p message -e 46 -c 2 -a 0 -i 5 -k MAC
d -t 0.005021919 -s 3 -d -1 -p message -e 46 -c 2 -a 0 -i 5 -k MAC
d -t 0.005021919 -s 15 -d -1 -p message -e 46 -c 2 -a 0 -i 5 -k MAC
d -t 0.005021921 -s 2 -d -1 -p message -e 46 -c 2 -a 0 -i 5 -k MAC
d -t 0.005021921 -s 20 -d -1 -p message -e 46 -c 2 -a 0 -i 5 -k MAC
d -t 0.005021921 -s 10 -d -1 -p message -e 46 -c 2 -a 0 -i 5 -k MAC
d -t 0.005021921 -s 4 -d -1 -p message -e 46 -c 2 -a 0 -i 5 -k MAC
d -t 0.005021929 -s 1 -d -1 -p message -e 46 -c 2 -a 0 -i 5 -k MAC
d -t 0.005021929 -s 5 -d -1 -p message -e 46 -c 2 -a 0 -i 5 -k MAC
d -t 0.005021939 -s 0 -d -1 -p message -e 46 -c 2 -a 0 -i 5 -k MAC
+ -t 0.005139590 -s 6 -d -1 -p message -e 46 -c 2 -a 0 -i 6 -k MAC 
- -t 0.005139590 -s 6 -d -1 -p message -e 46 -c 2 -a 0 -i 6 -k MAC
h -t 0.005139590 -s 6 -d -1 -p message -e 46 -c 2 -a 0 -i 6 -k MAC
r -t 0.005323607 -s 1 -d -1 -p message -e 46 -c 2 -a 0 -i 6 -k MAC
r -t 0.005323607 -s 5 -d -1 -p message -e 46 -c 2 -a 0 -i 6 -k MAC
r -t 0.005323607 -s 11 -d -1 -p message -e 46 -c 2 -a 0 -i 6 -k MAC
r -t 0.005323607 -s 7 -d -1 -p message -e 46 -c 2 -a 0 -i 6 -k MAC
r -t 0.005323607 -s 1 -d -1 -p message -e 46 -c 2 -a 0 -i 6 -k AGT
r -t 0.005323607 -s 5 -d -1 -p message -e 46 -c 2 -a 0 -i 6 -k AGT
r -t 0.005323607 -s 11 -d -1 -p message -e 46 -c 2 -a 0 -i 6 -k AGT
r -t 0.005323607 -s 7 -d -1 -p message -e 46 -c 2 -a 0 -i 6 -k AGT
r -t 0.005323613 -s 10 -d -1 -p message -e 46 -c 2 -a 0 -i 6 -k MAC
d -t 0.005323613 -s 0 -d -1 -p message -e 46 -c 2 -a 0 -i 6 -k MAC
r -t 0.005323613 -s 2 -d -1 -p message -e 46 -c 2 -a 0 -i 6 -k MAC
r -t 0.005323613 -s 12 -d -1 -p message -e 46 -c 2 -a 0 -i 6 -k MAC
r -t 0.005323613 -s 10 -d -1 -p message -e 46 -c 2 -a 0 -i 6 -k AGT
r -t 0.005323613 -s 2 -d -1 -p message -e 46 -c 2 -a 0 -i 6 -k AGT
r -t 0.005323613 -s 12 -d -1 -p message -e 46 -c 2 -a 0 -i 6 -k AGT
r -t 0.005323623 -s 16 -d -1 -p message -e 46 -c 2 -a 0 -i 6 -k MAC
d -t 0.005323623 -s 8 -d -1 -p message -e 46 -c 2 -a 0 -i 6 -k MAC
r -t 0.005323623 -s 16 -d -1 -p message -e 46 -c 2 -a 0 -i 6 -k AGT
d -t 0.005323627 -s 15 -d -1 -p message -e 46 -c 2 -a 0 -i 6 -k MAC
d -t 0.005323627 -s 17 -d -1 -p message -e 46 -c 2 -a 0 -i 6 -k MAC
r -t 0.005323627 -s 3 -d -1 -p message -e 46 -c 2 -a 0 -i 6 -k MAC
d -t 0.005323627 -s 13 -d -1 -p message -e 46 -c 2 -a 0 -i 6 -k MAC
r -t 0.005323627 -s 3 -d -1 -p message -e 46 -c 2 -a 0 -i 6 -k AGT
r -t 0.005323637 -s 18 -d -1 -p message -e 46 -c 2 -a 0 -i 6 -k MAC
r -t 0.005323637 -s 18 -d -1 -p message -e 46 -c 2 -a 0 -i 6 -k AGT
d -t 0.005323640 -s 21 -d -1 -p message -e 46 -c 2 -a 0 -i 6 -k MAC
d -t 0.005323640 -s 9 -d -1 -p message -e 46 -c 2 -a 0 -i 6 -k MAC
d -t 0.005323643 -s 20 -d -1 -p message -e 46 -c 2 -a 0 -i 6 -k MAC
d -t 0.005323643 -s 22 -d -1 -p message -e 46 -c 2 -a 0 -i 6 -k MAC
d -t 0.005323643 -s 4 -d -1 -p message -e 46 -c 2 -a 0 -i 6 -k MAC
d -t 0.005323643 -s 14 -d -1 -p message -e 46 -c 2 -a 0 -i 6 -k MAC
d -t 0.005323650 -s 23 -d -1 -p message -e 46 -c 2 -a 0 -i 6 -k MAC
d -t 0.005323650 -s 19 -d -1 -p message -e 46 -c 2 -a 0 -i 6 -k MAC
d -t 0.005323661 -s 24 -d -1 -p message -e 46 -c 2 -a 0 -i 6 -k MAC
+ -t 0.005566354 -s 24 -d -1 -p message -e 46 -c 2 -a 0 -i 5 -k AGT 
- -t 0.005566354 -s 24 -d -1 -p message -e 46 -c 2 -a 0 -i 5 -k AGT
h -t 0.005566354 -s 24 -d -1 -p message -e 46 -c 2 -a 0 -i 5 -k AGT
+ -t 0.005566354 -s 24 -d -1 -p message -e 46 -c 2 -a 0 -i 5 -k MAC 
- -t 0.005566354 -s 24 -d -1 -p message -e 46 -c 2 -a 0 -i 5 -k MAC
h -t 0.005566354 -s 24 -d -1 -p message -e 46 -c 2 -a 0 -i 5 -k MAC
+ -t 0.005588217 -s 14 -d -1 -p message -e 46 -c 2 -a 0 -i 6 -k AGT 
- -t 0.005588217 -s 14 -d -1 -p message -e 46 -c 2 -a 0 -i 6 -k AGT
h -t 0.005588217 -s 14 -d -1 -p message -e 46 -c 2 -a 0 -i 6 -k AGT
+ -t 0.005652759 -s 10 -d -1 -p message -e 46 -c 2 -a 0 -i 5 -k AGT 
- -t 0.005652759 -s 10 -d -1 -p message -e 46 -c 2 -a 0 -i 5 -k AGT
h -t 0.005652759 -s 10 -d -1 -p message -e 46 -c 2 -a 0 -i 5 -k AGT
+ -t 0.005668291 -s 4 -d -1 -p message -e 46 -c 2 -a 0 -i 5 -k AGT 
- -t 0.005668291 -s 4 -d -1 -p message -e 46 -c 2 -a 0 -i 5 -k AGT
h -t 0.005668291 -s 4 -d -1 -p message -e 46 -c 2 -a 0 -i 5 -k AGT
+ -t 0.005674000 -s 0 -d -1 -p message -e 46 -c 2 -a 0 -i 3 -k AGT 
- -t 0.005674000 -s 0 -d -1 -p message -e 46 -c 2 -a 0 -i 3 -k AGT
h -t 0.005674000 -s 0 -d -1 -p message -e 46 -c 2 -a 0 -i 3 -k AGT
r -t 0.005750371 -s 19 -d -1 -p message -e 46 -c 2 -a 0 -i 5 -k MAC
d -t 0.005750371 -s 23 -d -1 -p message -e 46 -c 2 -a 0 -i 5 -k MAC
r -t 0.005750371 -s 19 -d -1 -p message -e 46 -c 2 -a 0 -i 5 -k AGT
d -t 0.005750377 -s 18 -d -1 -p message -e 46 -c 2 -a 0 -i 5 -k MAC
r -t 0.005750387 -s 14 -d -1 -p message -e 46 -c 2 -a 0 -i 5 -k MAC
r -t 0.005750387 -s 22 -d -1 -p message -e 46 -c 2 -a 0 -i 5 -k MAC
r -t 0.005750387 -s 14 -d -1 -p message -e 46 -c 2 -a 0 -i 5 -k AGT
r -t 0.005750387 -s 22 -d -1 -p message -e 46 -c 2 -a 0 -i 5 -k AGT
r -t 0.005750391 -s 13 -d -1 -p message -e 46 -c 2 -a 0 -i 5 -k MAC
d -t 0.005750391 -s 17 -d -1 -p message -e 46 -c 2 -a 0 -i 5 -k MAC
r -t 0.005750391 -s 13 -d -1 -p message -e 46 -c 2 -a 0 -i 5 -k AGT
d -t 0.005750401 -s 12 -d -1 -p message -e 46 -c 2 -a 0 -i 5 -k MAC