s 0.000000000 _1_ AGT  --- 1 message 209 [0 0 0 0] ------- [1:42 -1:42 10 0] 
s 0.000000000 _2_ AGT  --- 2 message 209 [0 0 0 0] ------- [2:42 -1:42 10 0] 
s 0.000000000 _3_ AGT  --- 3 message 209 [0 0 0 0] ------- [3:42 -1:42 10 0] 
s 0.000000000 _4_ AGT  --- 4 message 209 [0 0 0 0] ------- [4:42 -1:42 10 0] 
s 0.000000000 _5_ AGT  --- 5 message 209 [0 0 0 0] ------- [5:42 -1:42 10 0] 
s 0.000000000 _6_ AGT  --- 6 message 209 [0 0 0 0] ------- [6:42 -1:42 10 0] 
s 0.000000000 _7_ AGT  --- 7 message 209 [0 0 0 0] ------- [7:42 -1:42 10 0] 
s 0.000000000 _8_ AGT  --- 8 message 209 [0 0 0 0] ------- [8:42 -1:42 10 0] 
s 0.000000000 _9_ AGT  --- 9 message 209 [0 0 0 0] ------- [9:42 -1:42 10 0] 
s 0.000000000 _10_ AGT  --- 10 message 209 [0 0 0 0] ------- [10:42 -1:42 10 0] 
s 0.000000000 _11_ AGT  --- 11 message 209 [0 0 0 0] ------- [11:42 -1:42 10 0] 
s 0.000000000 _12_ AGT  --- 12 message 209 [0 0 0 0] ------- [12:42 -1:42 10 0] 
s 0.000000000 _13_ AGT  --- 13 message 209 [0 0 0 0] ------- [13:42 -1:42 10 0] 
s 0.000000000 _14_ AGT  --- 14 message 209 [0 0 0 0] ------- [14:42 -1:42 10 0] 
s 0.000000000 _15_ AGT  --- 15 message 209 [0 0 0 0] ------- [15:42 -1:42 10 0] 
s 0.000000000 _1_ AGT  --- -1 message 209 [0 0 0 0] ------- [1:42 -1:42 10 0] 
s 0.000000000 _2_ AGT  --- -1 message 209 [0 0 0 0] ------- [2:42 -1:42 10 0] 
s 0.000000000 _3_ AGT  --- -1 message 209 [0 0 0 0] ------- [3:42 -1:42 10 0] 
s 0.000000000 _4_ AGT  --- -1 message 209 [0 0 0 0] ------- [4:42 -1:42 10 0] 
s 0.000000000 _5_ AGT  --- -1 message 209 [0 0 0 0] ------- [5:42 -1:42 10 0] 
s 0.000000000 _6_ AGT  --- -1 message 209 [0 0 0 0] ------- [6:42 -1:42 10 0] 
s 0.000000000 _7_ AGT  --- -1 message 209 [0 0 0 0] ------- [7:42 -1:42 10 0] 
s 0.000000000 _8_ AGT  --- -1 message 209 [0 0 0 0] ------- [8:42 -1:42 10 0] 
s 0.000000000 _9_ AGT  --- -1 message 209 [0 0 0 0] ------- [9:42 -1:42 10 0] 
s 0.000000000 _10_ AGT  --- -1 message 209 [0 0 0 0] ------- [10:42 -1:42 10 0] 
s 0.000000000 _11_ AGT  --- -1 message 209 [0 0 0 0] ------- [11:42 -1:42 10 0] 
s 0.000000000 _12_ AGT  --- -1 message 209 [0 0 0 0] ------- [12:42 -1:42 10 0] 
s 0.000000000 _13_ AGT  --- -1 message 209 [0 0 0 0] ------- [13:42 -1:42 10 0] 
s 0.000000000 _14_ AGT  --- -1 message 209 [0 0 0 0] ------- [14:42 -1:42 10 0] 
s 0.000000000 _15_ AGT  --- -1 message 209 [0 0 0 0] ------- [15:42 -1:42 10 0] 
s 0.000001230 _12_ MAC  --- 12 message 209 [0 c000000 ffff0008 0] ------- [12:42 -1:42 10 0] 
s 0.000071325 _4_ MAC  --- 4 message 209 [0 4000000 ffff0008 0] ------- [4:42 -1:42 10 0] 
s 0.000140753 _3_ MAC  --- 3 message 209 [0 3000000 ffff0008 0] ------- [3:42 -1:42 10 0] 
s 0.000145771 _10_ MAC  --- 10 message 209 [0 a000000 ffff0008 0] ------- [10:42 -1:42 10 0] 
D 0.000210231 _13_ MAC  ERR 12 message 209 [0 c000000 ffff0008 0] ------- [12:42 -1:42 10 0] 
D 0.000210231 _5_ MAC  ERR 12 message 209 [0 c000000 ffff0008 0] ------- [12:42 -1:42 10 0] 
D 0.000210231 _6_ MAC  ERR 12 message 209 [0 c000000 ffff0008 0] ------- [12:42 -1:42 10 0] 
D 0.000210231 _0_ MAC  ERR 12 message 209 [0 c000000 ffff0008 0] ------- [12:42 -1:42 10 0] 
s 0.000211592 _2_ MAC  --- 2 message 209 [0 2000000 ffff0008 0] ------- [2:42 -1:42 10 0] 
s 0.000216464 _9_ MAC  --- 9 message 209 [0 9000000 ffff0008 0] ------- [9:42 -1:42 10 0] 
s 0.000282556 _1_ MAC  --- 1 message 209 [0 1000000 ffff0008 0] ------- [1:42 -1:42 10 0] 
s 0.000287171 _8_ MAC  --- 8 message 209 [0 8000000 ffff0008 0] ------- [8:42 -1:42 10 0] 
s 0.000292435 _15_ MAC  --- 15 message 209 [0 f000000 ffff0008 0] ------- [15:42 -1:42 10 0] 
s 0.000324026 _11_ MAC  --- 11 message 209 [0 b000000 ffff0008 0] ------- [11:42 -1:42 10 0] 
s 0.000357183 _7_ MAC  --- 7 message 209 [0 7000000 ffff0008 0] ------- [7:42 -1:42 10 0] 
s 0.000359253 _14_ MAC  --- 14 message 209 [0 e000000 ffff0008 0] ------- [14:42 -1:42 10 0] 
s 0.000427024 _6_ MAC  --- 6 message 209 [0 6000000 ffff0008 0] ------- [6:42 -1:42 10 0] 
s 0.000434147 _13_ MAC  --- 13 message 209 [0 d000000 ffff0008 0] ------- [13:42 -1:42 10 0] 
s 0.000497123 _5_ MAC  --- 5 message 209 [0 5000000 ffff0008 0] ------- [5:42 -1:42 10 0] 
s 0.002000000 _1_ AGT  --- 17 message 209 [0 0 0 0] ------- [1:42 -1:42 10 0] 
s 0.002000000 _2_ AGT  --- 18 message 209 [0 0 0 0] ------- [2:42 -1:42 10 0] 
s 0.002000000 _3_ AGT  --- 19 message 209 [0 0 0 0] ------- [3:42 -1:42 10 0] 
s 0.002000000 _4_ AGT  --- 20 message 209 [0 0 0 0] ------- [4:42 -1:42 10 0] 
s 0.002000000 _5_ AGT  --- 21 message 209 [0 0 0 0] ------- [5:42 -1:42 10 0] 
s 0.002000000 _6_ AGT  --- 22 message 209 [0 0 0 0] ------- [6:42 -1:42 10 0] 
s 0.002000000 _7_ AGT  --- 23 message 209 [0 0 0 0] ------- [7:42 -1:42 10 0] 
s 0.002000000 _8_ AGT  --- 24 message 209 [0 0 0 0] ------- [8:42 -1:42 10 0] 
s 0.002000000 _9_ AGT  --- 25 message 209 [0 0 0 0] ------- [9:42 -1:42 10 0] 
s 0.002000000 _10_ AGT  --- 26 message 209 [0 0 0 0] ------- [10:42 -1:42 10 0] 
s 0.002000000 _11_ AGT  --- 27 message 209 [0 0 0 0] ------- [11:42 -1:42 10 0] 
s 0.002000000 _12_ AGT  --- 28 message 209 [0 0 0 0] ------- [12:42 -1:42 10 0] 
s 0.002000000 _13_ AGT  --- 29 message 209 [0 0 0 0] ------- [13:42 -1:42 10 0] 
s 0.002000000 _14_ AGT  --- 30 message 209 [0 0 0 0] ------- [14:42 -1:42 10 0] 
s 0.002000000 _15_ AGT  --- 31 message 209 [0 0 0 0] ------- [15:42 -1:42 10 0] 
s 0.002350528 _3_ MAC  --- 19 message 209 [0 3000000 ffff0008 0] ------- [3:42 -1:42 10 0] 
s 0.002499282 _4_ MAC  --- 20 message 209 [0 4000000 ffff0008 0] ------- [4:42 -1:42 10 0] 
s 0.002510065 _8_ MAC  --- 24 message 209 [0 8000000 ffff0008 0] ------- [8:42 -1:42 10 0] 
s 0.002528370 _14_ MAC  --- 30 message 209 [0 e000000 ffff0008 0] ------- [14:42 -1:42 10 0] 
D 0.002559528 _2_ MAC  ERR 19 message 209 [0 3000000 ffff0008 0] ------- [3:42 -1:42 10 0] 
D 0.002559528 _7_ MAC  ERR 19 message 209 [0 3000000 ffff0008 0] ------- [3:42 -1:42 10 0] 
D 0.002559528 _6_ MAC  ERR 19 message 209 [0 3000000 ffff0008 0] ------- [3:42 -1:42 10 0] 
D 0.002559528 _1_ MAC  ERR 19 message 209 [0 3000000 ffff0008 0] ------- [3:42 -1:42 10 0] 
D 0.002559528 _11_ MAC  ERR 19 message 209 [0 3000000 ffff0008 0] ------- [3:42 -1:42 10 0] 
D 0.002559528 _10_ MAC  ERR 19 message 209 [0 3000000 ffff0008 0] ------- [3:42 -1:42 10 0] 
D 0.002559528 _5_ MAC  ERR 19 message 209 [0 3000000 ffff0008 0] ------- [3:42 -1:42 10 0] 
D 0.002559528 _9_ MAC  ERR 19 message 209 [0 3000000 ffff0008 0] ------- [3:42 -1:42 10 0] 
D 0.002559529 _0_ MAC  ERR 19 message 209 [0 3000000 ffff0008 0] ------- [3:42 -1:42 10 0] 
s 0.002577926 _13_ MAC  --- 29 message 209 [0 d000000 ffff0008 0] ------- [13:42 -1:42 10 0] 
s 0.002594923 _12_ MAC  --- 28 message 209 [0 c000000 ffff0008 0] ------- [12:42 -1:42 10 0] 
s 0.002633286 _15_ MAC  --- 31 message 209 [0 f000000 ffff0008 0] ------- [15:42 -1:42 10 0] 
s 0.002760635 _10_ MAC  --- 26 message 209 [0 a000000 ffff0008 0] ------- [10:42 -1:42 10 0] 
s 0.002785171 _11_ MAC  --- 27 message 209 [0 b000000 ffff0008 0] ------- [11:42 -1:42 10 0] 
s 0.002795687 _9_ MAC  --- 25 message 209 [0 9000000 ffff0008 0] ------- [9:42 -1:42 10 0] 
s 0.002887559 _1_ MAC  --- 17 message 209 [0 1000000 ffff0008 0] ------- [1:42 -1:42 10 0] 
s 0.002942032 _7_ MAC  --- 23 message 209 [0 7000000 ffff0008 0] ------- [7:42 -1:42 10 0] 
s 0.002971855 _6_ MAC  --- 22 message 209 [0 6000000 ffff0008 0] ------- [6:42 -1:42 10 0] 
s 0.003126081 _2_ MAC  --- 18 message 209 [0 2000000 ffff0008 0] ------- [2:42 -1:42 10 0] 
s 0.003273503 _5_ MAC  --- 21 message 209 [0 5000000 ffff0008 0] ------- [5:42 -1:42 10 0] 
s 0.004000000 _1_ AGT  --- 33 message 209 [0 0 0 0] ------- [1:42 -1:42 10 0] 
s 0.004000000 _2_ AGT  --- 34 message 209 [0 0 0 0] ------- [2:42 -1:42 10 0] 
s 0.004000000 _3_ AGT  --- 35 message 209 [0 0 0 0] ------- [3:42 -1:42 10 0] 
s 0.004000000 _4_ AGT  --- 36 message 209 [0 0 0 0] ------- [4:42 -1:42 10 0] 
s 0.004000000 _5_ AGT  --- 37 message 209 [0 0 0 0] ------- [5:42 -1:42 10 0] 
s 0.004000000 _6_ AGT  --- 38 message 209 [0 0 0 0] ------- [6:42 -1:42 10 0] 
s 0.004000000 _7_ AGT  --- 39 message 209 [0 0 0 0] ------- [7:42 -1:42 10 0] 
s 0.004000000 _8_ AGT  --- 40 message 209 [0 0 0 0] ------- [8:42 -1:42 10 0] 
s 0.004000000 _9_ AGT  --- 41 message 209 [0 0 0 0] ------- [9:42 -1:42 10 0] 
s 0.004000000 _10_ AGT  --- 42 message 209 [0 0 0 0] ------- [10:42 -1:42 10 0] 
s 0.004000000 _11_ AGT  --- 43 message 209 [0 0 0 0] ------- [11:42 -1:42 10 0] 
s 0.004000000 _12_ AGT  --- 44 message 209 [0 0 0 0] ------- [12:42 -1:42 10 0] 
s 0.004000000 _13_ AGT  --- 45 message 209 [0 0 0 0] ------- [13:42 -1:42 10 0] 
s 0.004000000 _14_ AGT  --- 46 message 209 [0 0 0 0] ------- [14:42 -1:42 10 0] 
s 0.004000000 _15_ AGT  --- 47 message 209 [0 0 0 0] ------- [15:42 -1:42 10 0] 
s 0.004011209 _12_ MAC  --- 44 message 209 [0 c000000 ffff0008 0] ------- [12:42 -1:42 10 0] 
s 0.004022309 _10_ MAC  --- 42 message 209 [0 a000000 ffff0008 0] ------- [10:42 -1:42 10 0] 
s 0.004076806 _1_ MAC  --- 33 message 209 [0 1000000 ffff0008 0] ------- [1:42 -1:42 10 0] 
s 0.004092449 _9_ MAC  --- 41 message 209 [0 9000000 ffff0008 0] ------- [9:42 -1:42 10 0] 
s 0.004150671 _7_ MAC  --- 39 message 209 [0 7000000 ffff0008 0] ------- [7:42 -1:42 10 0] 
D 0.004220209 _8_ MAC  ERR 44 message 209 [0 c000000 ffff0008 0] ------- [12:42 -1:42 10 0] 
D 0.004220209 _13_ MAC  ERR 44 message 209 [0 c000000 ffff0008 0] ------- [12:42 -1:42 10 0] 
D 0.004220209 _4_ MAC  ERR 44 message 209 [0 c000000 ffff0008 0] ------- [12:42 -1:42 10 0] 
D 0.004220209 _14_ MAC  ERR 44 message 209 [0 c000000 ffff0008 0] ------- [12:42 -1:42 10 0] 
D 0.004220209 _5_ MAC  ERR 44 message 209 [0 c000000 ffff0008 0] ------- [12:42 -1:42 10 0] 
D 0.004220210 _6_ MAC  ERR 44 message 209 [0 c000000 ffff0008 0] ------- [12:42 -1:42 10 0] 
D 0.004220210 _0_ MAC  ERR 44 message 209 [0 c000000 ffff0008 0] ------- [12:42 -1:42 10 0] 
D 0.004220210 _15_ MAC  ERR 44 message 209 [0 c000000 ffff0008 0] ------- [12:42 -1:42 10 0] 
D 0.004220210 _11_ MAC  ERR 44 message 209 [0 c000000 ffff0008 0] ------- [12:42 -1:42 10 0] 
D 0.004220210 _2_ MAC  ERR 44 message 209 [0 c000000 ffff0008 0] ------- [12:42 -1:42 10 0] 
D 0.004220210 _3_ MAC  ERR 44 message 209 [0 c000000 ffff0008 0] ------- [12:42 -1:42 10 0] 
s 0.004387905 _6_ MAC  --- 38 message 209 [0 6000000 ffff0008 0] ------- [6:42 -1:42 10 0] 
s 0.004534276 _5_ MAC  --- 37 message 209 [0 5000000 ffff0008 0] ------- [5:42 -1:42 10 0] 
s 0.004589466 _2_ MAC  --- 34 message 209 [0 2000000 ffff0008 0] ------- [2:42 -1:42 10 0] 
D 0.004596905 _10_ MAC  ERR 38 message 209 [0 6000000 ffff0008 0] ------- [6:42 -1:42 10 0] 
D 0.004596905 _7_ MAC  ERR 38 message 209 [0 6000000 ffff0008 0] ------- [6:42 -1:42 10 0] 
D 0.004596905 _9_ MAC  ERR 38 message 209 [0 6000000 ffff0008 0] ------- [6:42 -1:42 10 0] 
D 0.004596905 _1_ MAC  ERR 38 message 209 [0 6000000 ffff0008 0] ------- [6:42 -1:42 10 0] 
D 0.004596905 _11_ MAC  ERR 38 message 209 [0 6000000 ffff0008 0] ------- [6:42 -1:42 10 0] 
D 0.004596905 _4_ MAC  ERR 38 message 209 [0 6000000 ffff0008 0] ------- [6:42 -1:42 10 0] 
D 0.004596905 _14_ MAC  ERR 38 message 209 [0 6000000 ffff0008 0] ------- [6:42 -1:42 10 0] 
D 0.004596905 _13_ MAC  ERR 38 message 209 [0 6000000 ffff0008 0] ------- [6:42 -1:42 10 0] 
D 0.004596905 _8_ MAC  ERR 38 message 209 [0 6000000 ffff0008 0] ------- [6:42 -1:42 10 0] 
D 0.004596905 _0_ MAC  ERR 38 message 209 [0 6000000 ffff0008 0] ------- [6:42 -1:42 10 0] 
D 0.004596905 _15_ MAC  ERR 38 message 209 [0 6000000 ffff0008 0] ------- [6:42 -1:42 10 0] 
D 0.004596906 _12_ MAC  ERR 38 message 209 [0 6000000 ffff0008 0] ------- [6:42 -1:42 10 0] 
s 0.004722348 _3_ MAC  --- 35 message 209 [0 3000000 ffff0008 0] ------- [3:42 -1:42 10 0] 
s 0.004999794 _8_ MAC  --- 40 message 209 [0 8000000 ffff0008 0] ------- [8:42 -1:42 10 0] 
s 0.005025324 _14_ MAC  --- 46 message 209 [0 e000000 ffff0008 0] ------- [14:42 -1:42 10 0] 
s 0.005104896 _15_ MAC  --- 47 message 209 [0 f000000 ffff0008 0] ------- [15:42 -1:42 10 0] 
s 0.005207915 _11_ MAC  --- 43 message 209 [0 b000000 ffff0008 0] ------- [11:42 -1:42 10 0] 
D 0.005208794 _4_ MAC  ERR 40 message 209 [0 8000000 ffff0008 0] ------- [8:42 -1:42 10 0] 
D 0.005208794 _9_ MAC  ERR 40 message 209 [0 8000000 ffff0008 0] ------- [8:42 -1:42 10 0] 
D 0.005208794 _5_ MAC  ERR 40 message 209 [0 8000000 ffff0008 0] ------- [8:42 -1:42 10 0] 
D 0.005208795 _0_ MAC  ERR 40 message 209 [0 8000000 ffff0008 0] ------- [8:42 -1:42 10 0] 
D 0.005208795 _6_ MAC  ERR 40 message 209 [0 8000000 ffff0008 0] ------- [8:42 -1:42 10 0] 
D 0.005208795 _2_ MAC  ERR 40 message 209 [0 8000000 ffff0008 0] ------- [8:42 -1:42 10 0] 
D 0.005208795 _3_ MAC  ERR 40 message 209 [0 8000000 ffff0008 0] ------- [8:42 -1:42 10 0] 
s 0.005345181 _13_ MAC  --- 45 message 209 [0 d000000 ffff0008 0] ------- [13:42 -1:42 10 0] 
s 0.005427597 _4_ MAC  --- 36 message 209 [0 4000000 ffff0008 0] ------- [4:42 -1:42 10 0] 
s 0.006000000 _1_ AGT  --- 49 message 209 [0 0 0 0] ------- [1:42 -1:42 10 0] 
s 0.006000000 _2_ AGT  --- 50 message 209 [0 0 0 0] ------- [2:42 -1:42 10 0] 
s 0.006000000 _3_ AGT  --- 51 message 209 [0 0 0 0] ------- [3:42 -1:42 10 0] 
s 0.006000000 _4_ AGT  --- 52 message 209 [0 0 0 0] ------- [4:42 -1:42 10 0] 
s 0.006000000 _5_ AGT  --- 53 message 209 [0 0 0 0] ------- [5:42 -1:42 10 0] 
s 0.006000000 _6_ AGT  --- 54 message 209 [0 0 0 0] ------- [6:42 -1:42 10 0] 
s 0.006000000 _7_ AGT  --- 55 message 209 [0 0 0 0] ------- [7:42 -1:42 10 0] 
s 0.006000000 _8_ AGT  --- 56 message 209 [0 0 0 0] ------- [8:42 -1:42 10 0] 
s 0.006000000 _9_ AGT  --- 57 message 209 [0 0 0 0] ------- [9:42 -1:42 10 0] 
s 0.006000000 _10_ AGT  --- 58 message 209 [0 0 0 0] ------- [10:42 -1:42 10 0] 
s 0.006000000 _11_ AGT  --- 59 message 209 [0 0 0 0] ------- [11:42 -1:42 10 0] 
s 0.006000000 _12_ AGT  --- 60 message 209 [0 0 0 0] ------- [12:42 -1:42 10 0] 
s 0.006000000 _13_ AGT  --- 61 message 209 [0 0 0 0] ------- [13:42 -1:42 10 0] 
s 0.006000000 _14_ AGT  --- 62 message 209 [0 0 0 0] ------- [14:42 -1:42 10 0] 
s 0.006000000 _15_ AGT  --- 63 message 209 [0 0 0 0] ------- [15:42 -1:42 10 0] 
s 0.006050235 _14_ MAC  --- 62 message 209 [0 e000000 ffff0008 0] ------- [14:42 -1:42 10 0] 
s 0.006085138 _12_ MAC  --- 60 message 209 [0 c000000 ffff0008 0] ------- [12:42 -1:42 10 0] 
s 0.006127361 _8_ MAC  --- 56 message 209 [0 8000000 ffff0008 0] ------- [8:42 -1:42 10 0] 
D 0.006259235 _13_ MAC  ERR 62 message 209 [0 e000000 ffff0008 0] ------- [14:42 -1:42 10 0] 
D 0.006259235 _15_ MAC  ERR 62 message 209 [0 e000000 ffff0008 0] ------- [14:42 -1:42 10 0] 
D 0.006259235 _9_ MAC  ERR 62 message 209 [0 e000000 ffff0008 0] ------- [14:42 -1:42 10 0] 
D 0.006259235 _6_ MAC  ERR 62 message 209 [0 e000000 ffff0008 0] ------- [14:42 -1:42 10 0] 
D 0.006259235 _5_ MAC  ERR 62 message 209 [0 e000000 ffff0008 0] ------- [14:42 -1:42 10 0] 
D 0.006259235 _7_ MAC  ERR 62 message 209 [0 e000000 ffff0008 0] ------- [14:42 -1:42 10 0] 
D 0.006259236 _4_ MAC  ERR 62 message 209 [0 e000000 ffff0008 0] ------- [14:42 -1:42 10 0] 
D 0.006259236 _2_ MAC  ERR 62 message 209 [0 e000000 ffff0008 0] ------- [14:42 -1:42 10 0] 
D 0.006259236 _1_ MAC  ERR 62 message 209 [0 e000000 ffff0008 0] ------- [14:42 -1:42 10 0] 
D 0.006259236 _3_ MAC  ERR 62 message 209 [0 e000000 ffff0008 0] ------- [14:42 -1:42 10 0] 
D 0.006259236 _0_ MAC  ERR 62 message 209 [0 e000000 ffff0008 0] ------- [14:42 -1:42 10 0] 
s 0.006381737 _10_ MAC  --- 58 message 209 [0 a000000 ffff0008 0] ------- [10:42 -1:42 10 0] 
s 0.006408102 _11_ MAC  --- 59 message 209 [0 b000000 ffff0008 0] ------- [11:42 -1:42 10 0] 
s 0.006417504 _13_ MAC  --- 61 message 209 [0 d000000 ffff0008 0] ------- [13:42 -1:42 10 0] 
s 0.006543409 _15_ MAC  --- 63 message 209 [0 f000000 ffff0008 0] ------- [15:42 -1:42 10 0] 
s 0.006568268 _1_ MAC  --- 49 message 209 [0 1000000 ffff0008 0] ------- [1:42 -1:42 10 0] 
D 0.006590738 _14_ MAC  ERR 58 message 209 [0 a000000 ffff0008 0] ------- [10:42 -1:42 10 0] 
D 0.006590738 _8_ MAC  ERR 58 message 209 [0 a000000 ffff0008 0] ------- [10:42 -1:42 10 0] 
D 0.006590738 _12_ MAC  ERR 58 message 209 [0 a000000 ffff0008 0] ------- [10:42 -1:42 10 0] 
s 0.006616172 _7_ MAC  --- 55 message 209 [0 7000000 ffff0008 0] ------- [7:42 -1:42 10 0] 
s 0.006640266 _9_ MAC  --- 57 message 209 [0 9000000 ffff0008 0] ------- [9:42 -1:42 10 0] 
s 0.006768836 _5_ MAC  --- 53 message 209 [0 5000000 ffff0008 0] ------- [5:42 -1:42 10 0] 
s 0.006817031 _4_ MAC  --- 52 message 209 [0 4000000 ffff0008 0] ------- [4:42 -1:42 10 0] 
s 0.006827169 _3_ MAC  --- 51 message 209 [0 3000000 ffff0008 0] ------- [3:42 -1:42 10 0] 
s 0.006848215 _6_ MAC  --- 54 message 209 [0 6000000 ffff0008 0] ------- [6:42 -1:42 10 0] 
s 0.006984048 _2_ MAC  --- 50 message 209 [0 2000000 ffff0008 0] ------- [2:42 -1:42 10 0] 
s 0.008000000 _1_ AGT  --- 65 message 209 [0 0 0 0] ------- [1:42 -1:42 10 0] 
s 0.008000000 _2_ AGT  --- 66 message 209 [0 0 0 0] ------- [2:42 -1:42 10 0] 
s 0.008000000 _3_ AGT  --- 67 message 209 [0 0 0 0] ------- [3:42 -1:42 10 0] 
s 0.008000000 _4_ AGT  --- 68 message 209 [0 0 0 0] ------- [4:42 -1:42 10 0] 
s 0.008000000 _5_ AGT  --- 69 message 209 [0 0 0 0] ------- [5:42 -1:42 10 0] 
s 0.008000000 _6_ AGT  --- 70 message 209 [0 0 0 0] ------- [6:42 -1:42 10 0] 
s 0.008000000 _7_ AGT  --- 71 message 209 [0 0 0 0] ------- [7:42 -1:42 10 0] 
s 0.008000000 _8_ AGT  --- 72 message 209 [0 0 0 0] ------- [8:42 -1:42 10 0] 
s 0.008000000 _9_ AGT  --- 73 message 209 [0 0 0 0] ------- [9:42 -1:42 10 0] 
s 0.008000000 _10_ AGT  --- 74 message 209 [0 0 0 0] ------- [10:42 -1:42 10 0] 
s 0.008000000 _11_ AGT  --- 75 message 209 [0 0 0 0] ------- [11:42 -1:42 10 0] 
s 0.008000000 _12_ AGT  --- 76 message 209 [0 0 0 0] ------- [12:42 -1:42 10 0] 
s 0.008000000 _13_ AGT  --- 77 message 209 [0 0 0 0] ------- [13:42 -1:42 10 0] 
s 0.008000000 _14_ AGT  --- 78 message 209 [0 0 0 0] ------- [14:42 -1:42 10 0] 
s 0.008000000 _15_ AGT  --- 79 message 209 [0 0 0 0] ------- [15:42 -1:42 10 0] 
s 0.008047333 _7_ MAC  --- 71 message 209 [0 7000000 ffff0008 0] ------- [7:42 -1:42 10 0] 
s 0.008180867 _3_ MAC  --- 67 message 209 [0 3000000 ffff0008 0] ------- [3:42 -1:42 10 0] 
s 0.008198430 _5_ MAC  --- 69 message 209 [0 5000000 ffff0008 0] ------- [5:42 -1:42 10 0] 
D 0.008256333 _11_ MAC  ERR 71 message 209 [0 7000000 ffff0008 0] ------- [7:42 -1:42 10 0] 
D 0.008256333 _10_ MAC  ERR 71 message 209 [0 7000000 ffff0008 0] ------- [7:42 -1:42 10 0] 
D 0.008256333 _2_ MAC  ERR 71 message 209 [0 7000000 ffff0008 0] ------- [7:42 -1:42 10 0] 
D 0.008256334 _15_ MAC  ERR 71 message 209 [0 7000000 ffff0008 0] ------- [7:42 -1:42 10 0] 
D 0.008256334 _14_ MAC  ERR 71 message 209 [0 7000000 ffff0008 0] ------- [7:42 -1:42 10 0] 
D 0.008256334 _9_ MAC  ERR 71 message 209 [0 7000000 ffff0008 0] ------- [7:42 -1:42 10 0] 
D 0.008256334 _1_ MAC  ERR 71 message 209 [0 7000000 ffff0008 0] ------- [7:42 -1:42 10 0] 
D 0.008256334 _13_ MAC  ERR 71 message 209 [0 7000000 ffff0008 0] ------- [7:42 -1:42 10 0] 
D 0.008256334 _8_ MAC  ERR 71 message 209 [0 7000000 ffff0008 0] ------- [7:42 -1:42 10 0] 
D 0.008256334 _0_ MAC  ERR 71 message 209 [0 7000000 ffff0008 0] ------- [7:42 -1:42 10 0] 
D 0.008256334 _12_ MAC  ERR 71 message 209 [0 7000000 ffff0008 0] ------- [7:42 -1:42 10 0] 
s 0.008256383 _4_ MAC  --- 68 message 209 [0 4000000 ffff0008 0] ------- [4:42 -1:42 10 0] 
s 0.008342248 _6_ MAC  --- 70 message 209 [0 6000000 ffff0008 0] ------- [6:42 -1:42 10 0] 
s 0.008465163 _2_ MAC  --- 66 message 209 [0 2000000 ffff0008 0] ------- [2:42 -1:42 10 0] 
s 0.008513164 _11_ MAC  --- 75 message 209 [0 b000000 ffff0008 0] ------- [11:42 -1:42 10 0] 
s 0.008628465 _8_ MAC  --- 72 message 209 [0 8000000 ffff0008 0] ------- [8:42 -1:42 10 0] 
s 0.008655792 _12_ MAC  --- 76 message 209 [0 c000000 ffff0008 0] ------- [12:42 -1:42 10 0] 
s 0.008959341 _9_ MAC  --- 73 message 209 [0 9000000 ffff0008 0] ------- [9:42 -1:42 10 0] 
s 0.008982950 _14_ MAC  --- 78 message 209 [0 e000000 ffff0008 0] ------- [14:42 -1:42 10 0] 
s 0.009109445 _10_ MAC  --- 74 message 209 [0 a000000 ffff0008 0] ------- [10:42 -1:42 10 0] 
s 0.009111421 _1_ MAC  --- 65 message 209 [0 1000000 ffff0008 0] ------- [1:42 -1:42 10 0] 
s 0.009124237 _15_ MAC  --- 79 message 209 [0 f000000 ffff0008 0] ------- [15:42 -1:42 10 0] 
D 0.009168342 _8_ MAC  ERR 73 message 209 [0 9000000 ffff0008 0] ------- [9:42 -1:42 10 0] 
D 0.009168342 _12_ MAC  ERR 73 message 209 [0 9000000 ffff0008 0] ------- [9:42 -1:42 10 0] 
D 0.009168342 _4_ MAC  ERR 73 message 209 [0 9000000 ffff0008 0] ------- [9:42 -1:42 10 0] 
D 0.009168342 _6_ MAC  ERR 73 message 209 [0 9000000 ffff0008 0] ------- [9:42 -1:42 10 0] 
D 0.009168342 _11_ MAC  ERR 73 message 209 [0 9000000 ffff0008 0] ------- [9:42 -1:42 10 0] 
D 0.009168342 _0_ MAC  ERR 73 message 209 [0 9000000 ffff0008 0] ------- [9:42 -1:42 10 0] 
D 0.009168342 _2_ MAC  ERR 73 message 209 [0 9000000 ffff0008 0] ------- [9:42 -1:42 10 0] 
D 0.009168342 _7_ MAC  ERR 73 message 209 [0 9000000 ffff0008 0] ------- [9:42 -1:42 10 0] 
D 0.009168342 _3_ MAC  ERR 73 message 209 [0 9000000 ffff0008 0] ------- [9:42 -1:42 10 0] 
s 0.009215088 _13_ MAC  --- 77 message 209 [0 d000000 ffff0008 0] ------- [13:42 -1:42 10 0] 
s 0.010000000 _1_ AGT  --- 81 message 209 [0 0 0 0] ------- [1:42 -1:42 10 0] 
s 0.010000000 _2_ AGT  --- 82 message 209 [0 0 0 0] ------- [2:42 -1:42 10 0] 
s 0.010000000 _3_ AGT  --- 83 message 209 [0 0 0 0] ------- [3:42 -1:42 10 0] 
s 0.010000000 _4_ AGT  --- 84 message 209 [0 0 0 0] ------- [4:42 -1:42 10 0] 
s 0.010000000 _5_ AGT  --- 85 message 209 [0 0 0 0] ------- [5:42 -1:42 10 0] 
s 0.010000000 _6_ AGT  --- 86 message 209 [0 0 0 0] ------- [6:42 -1:42 10 0] 
s 0.010000000 _7_ AGT  --- 87 message 209 [0 0 0 0] ------- [7:42 -1:42 10 0] 
s 0.010000000 _8_ AGT  --- 88 message 209 [0 0 0 0] ------- [8:42 -1:42 10 0] 
s 0.010000000 _9_ AGT  --- 89 message 209 [0 0 0 0] ------- [9:42 -1:42 10 0] 
s 0.010000000 _10_ AGT  --- 90 message 209 [0 0 0 0] ------- [10:42 -1:42 10 0] 
s 0.010000000 _11_ AGT  --- 91 message 209 [0 0 0 0] ------- [11:42 -1:42 10 0] 
s 0.010000000 _12_ AGT  --- 92 message 209 [0 0 0 0] ------- [12:42 -1:42 10 0] 
s 0.010000000 _13_ AGT  --- 93 message 209 [0 0 0 0] ------- [13:42 -1:42 10 0] 
s 0.010000000 _14_ AGT  --- 94 message 209 [0 0 0 0] ------- [14:42 -1:42 10 0] 
s 0.010000000 _15_ AGT  --- 95 message 209 [0 0 0 0] ------- [15:42 -1:42 10 0] 
s 0.010070976 _14_ MAC  --- 94 message 209 [0 e000000 ffff0008 0] ------- [14:42 -1:42 10 0] 
s 0.010141170 _9_ MAC  --- 89 message 209 [0 9000000 ffff0008 0] ------- [9:42 -1:42 10 0] 
s 0.010188453 _1_ MAC  --- 81 message 209 [0 1000000 ffff0008 0] ------- [1:42 -1:42 10 0] 
s 0.010240783 _5_ MAC  --- 85 message 209 [0 5000000 ffff0008 0] ------- [5:42 -1:42 10 0] 
s 0.010249329 _10_ MAC  --- 90 message 209 [0 a000000 ffff0008 0] ------- [10:42 -1:42 10 0] 
D 0.010279977 _13_ MAC  ERR 94 message 209 [0 e000000 ffff0008 0] ------- [14:42 -1:42 10 0] 
D 0.010279977 _11_ MAC  ERR 94 message 209 [0 e000000 ffff0008 0] ------- [14:42 -1:42 10 0] 
D 0.010279977 _6_ MAC  ERR 94 message 209 [0 e000000 ffff0008 0] ------- [14:42 -1:42 10 0] 
D 0.010279977 _12_ MAC  ERR 94 message 209 [0 e000000 ffff0008 0] ------- [14:42 -1:42 10 0] 
D 0.010279977 _8_ MAC  ERR 94 message 209 [0 e000000 ffff0008 0] ------- [14:42 -1:42 10 0] 
D 0.010279977 _7_ MAC  ERR 94 message 209 [0 e000000 ffff0008 0] ------- [14:42 -1:42 10 0] 
D 0.010279977 _4_ MAC  ERR 94 message 209 [0 e000000 ffff0008 0] ------- [14:42 -1:42 10 0] 
D 0.010279977 _2_ MAC  ERR 94 message 209 [0 e000000 ffff0008 0] ------- [14:42 -1:42 10 0] 
D 0.010279977 _3_ MAC  ERR 94 message 209 [0 e000000 ffff0008 0] ------- [14:42 -1:42 10 0] 
D 0.010279977 _0_ MAC  ERR 94 message 209 [0 e000000 ffff0008 0] ------- [14:42 -1:42 10 0] 
s 0.010348553 _15_ MAC  --- 95 message 209 [0 f000000 ffff0008 0] ------- [15:42 -1:42 10 0] 
s 0.010490822 _13_ MAC  --- 93 message 209 [0 d000000 ffff0008 0] ------- [13:42 -1:42 10 0] 
s 0.010722299 _4_ MAC  --- 84 message 209 [0 4000000 ffff0008 0] ------- [4:42 -1:42 10 0] 
s 0.010735985 _3_ MAC  --- 83 message 209 [0 3000000 ffff0008 0] ------- [3:42 -1:42 10 0] 
s 0.010895999 _12_ MAC  --- 92 message 209 [0 c000000 ffff0008 0] ------- [12:42 -1:42 10 0] 
s 0.010921185 _6_ MAC  --- 86 message 209 [0 6000000 ffff0008 0] ------- [6:42 -1:42 10 0] 
D 0.010931300 _0_ MAC  ERR 84 message 209 [0 4000000 ffff0008 0] ------- [4:42 -1:42 10 0] 
D 0.010931300 _8_ MAC  ERR 84 message 209 [0 4000000 ffff0008 0] ------- [4:42 -1:42 10 0] 
D 0.010931300 _5_ MAC  ERR 84 message 209 [0 4000000 ffff0008 0] ------- [4:42 -1:42 10 0] 
D 0.010931300 _1_ MAC  ERR 84 message 209 [0 4000000 ffff0008 0] ------- [4:42 -1:42 10 0] 
D 0.010931300 _9_ MAC  ERR 84 message 209 [0 4000000 ffff0008 0] ------- [4:42 -1:42 10 0] 
D 0.010931300 _13_ MAC  ERR 84 message 209 [0 4000000 ffff0008 0] ------- [4:42 -1:42 10 0] 
D 0.010931300 _10_ MAC  ERR 84 message 209 [0 4000000 ffff0008 0] ------- [4:42 -1:42 10 0] 
D 0.010931300 _14_ MAC  ERR 84 message 209 [0 4000000 ffff0008 0] ------- [4:42 -1:42 10 0] 
D 0.010931301 _11_ MAC  ERR 84 message 209 [0 4000000 ffff0008 0] ------- [4:42 -1:42 10 0] 
D 0.010931301 _15_ MAC  ERR 84 message 209 [0 4000000 ffff0008 0] ------- [4:42 -1:42 10 0] 
s 0.010974505 _7_ MAC  --- 87 message 209 [0 7000000 ffff0008 0] ------- [7:42 -1:42 10 0] 
s 0.011021290 _2_ MAC  --- 82 message 209 [0 2000000 ffff0008 0] ------- [2:42 -1:42 10 0] 
s 0.011244148 _11_ MAC  --- 91 message 209 [0 b000000 ffff0008 0] ------- [11:42 -1:42 10 0] 
s 0.011254812 _8_ MAC  --- 88 message 209 [0 8000000 ffff0008 0] ------- [8:42 -1:42 10 0] 
D 0.011453148 _7_ MAC  ERR 91 message 209 [0 b000000 ffff0008 0] ------- [11:42 -1:42 10 0] 
D 0.011453149 _6_ MAC  ERR 91 message 209 [0 b000000 ffff0008 0] ------- [11:42 -1:42 10 0] 
D 0.011453149 _3_ MAC  ERR 91 message 209 [0 b000000 ffff0008 0] ------- [11:42 -1:42 10 0] 
D 0.011453149 _2_ MAC  ERR 91 message 209 [0 b000000 ffff0008 0] ------- [11:42 -1:42 10 0] 
D 0.011453149 _5_ MAC  ERR 91 message 209 [0 b000000 ffff0008 0] ------- [11:42 -1:42 10 0] 
D 0.011453149 _12_ MAC  ERR 91 message 209 [0 b000000 ffff0008 0] ------- [11:42 -1:42 10 0] 
D 0.011453149 _4_ MAC  ERR 91 message 209 [0 b000000 ffff0008 0] ------- [11:42 -1:42 10 0] 
D 0.011453149 _0_ MAC  ERR 91 message 209 [0 b000000 ffff0008 0] ------- [11:42 -1:42 10 0] 
s 0.012000000 _1_ AGT  --- 97 message 209 [0 0 0 0] ------- [1:42 -1:42 10 0] 
s 0.012000000 _2_ AGT  --- 98 message 209 [0 0 0 0] ------- [2:42 -1:42 10 0] 
s 0.012000000 _3_ AGT  --- 99 message 209 [0 0 0 0] ------- [3:42 -1:42 10 0] 
s 0.012000000 _4_ AGT  --- 100 message 209 [0 0 0 0] ------- [4:42 -1:42 10 0] 
s 0.012000000 _5_ AGT  --- 101 message 209 [0 0 0 0] ------- [5:42 -1:42 10 0] 
s 0.012000000 _6_ AGT  --- 102 message 209 [0 0 0 0] ------- [6:42 -1:42 10 0] 
s 0.012000000 _7_ AGT  --- 103 message 209 [0 0 0 0] ------- [7:42 -1:42 10 0] 
s 0.012000000 _8_ AGT  --- 104 message 209 [0 0 0 0] ------- [8:42 -1:42 10 0] 
s 0.012000000 _9_ AGT  --- 105 message 209 [0 0 0 0] ------- [9:42 -1:42 10 0] 
s 0.012000000 _10_ AGT  --- 106 message 209 [0 0 0 0] ------- [10:42 -1:42 10 0] 
s 0.012000000 _11_ AGT  --- 107 message 209 [0 0 0 0] ------- [11:42 -1:42 10 0] 
s 0.012000000 _12_ AGT  --- 108 message 209 [0 0 0 0] ------- [12:42 -1:42 10 0] 
s 0.012000000 _13_ AGT  --- 109 message 209 [0 0 0 0] ------- [13:42 -1:42 10 0] 
s 0.012000000 _14_ AGT  --- 110 message 209 [0 0 0 0] ------- [14:42 -1:42 10 0] 
s 0.012000000 _15_ AGT  --- 111 message 209 [0 0 0 0] ------- [15:42 -1:42 10 0] 
s 0.012060847 _3_ MAC  --- 99 message 209 [0 3000000 ffff0008 0] ------- [3:42 -1:42 10 0] 
s 0.012125942 _7_ MAC  --- 103 message 209 [0 7000000 ffff0008 0] ------- [7:42 -1:42 10 0] 
s 0.012191754 _6_ MAC  --- 102 message 209 [0 6000000 ffff0008 0] ------- [6:42 -1:42 10 0] 
D 0.012269848 _2_ MAC  ERR 99 message 209 [0 3000000 ffff0008 0] ------- [3:42 -1:42 10 0] 
D 0.012269848 _1_ MAC  ERR 99 message 209 [0 3000000 ffff0008 0] ------- [3:42 -1:42 10 0] 
D 0.012269848 _10_ MAC  ERR 99 message 209 [0 3000000 ffff0008 0] ------- [3:42 -1:42 10 0] 
D 0.012269848 _5_ MAC  ERR 99 message 209 [0 3000000 ffff0008 0] ------- [3:42 -1:42 10 0] 
D 0.012269848 _9_ MAC  ERR 99 message 209 [0 3000000 ffff0008 0] ------- [3:42 -1:42 10 0] 
D 0.012269848 _0_ MAC  ERR 99 message 209 [0 3000000 ffff0008 0] ------- [3:42 -1:42 10 0] 
D 0.012269848 _15_ MAC  ERR 99 message 209 [0 3000000 ffff0008 0] ------- [3:42 -1:42 10 0] 
D 0.012269848 _14_ MAC  ERR 99 message 209 [0 3000000 ffff0008 0] ------- [3:42 -1:42 10 0] 
D 0.012269848 _4_ MAC  ERR 99 message 209 [0 3000000 ffff0008 0] ------- [3:42 -1:42 10 0] 
D 0.012269848 _13_ MAC  ERR 99 message 209 [0 3000000 ffff0008 0] ------- [3:42 -1:42 10 0] 
D 0.012269848 _8_ MAC  ERR 99 message 209 [0 3000000 ffff0008 0] ------- [3:42 -1:42 10 0] 
D 0.012269849 _12_ MAC  ERR 99 message 209 [0 3000000 ffff0008 0] ------- [3:42 -1:42 10 0] 
s 0.012317040 _11_ MAC  --- 107 message 209 [0 b000000 ffff0008 0] ------- [11:42 -1:42 10 0] 
s 0.012466379 _2_ MAC  --- 98 message 209 [0 2000000 ffff0008 0] ------- [2:42 -1:42 10 0] 
s 0.012499334 _1_ MAC  --- 97 message 209 [0 1000000 ffff0008 0] ------- [1:42 -1:42 10 0] 
s 0.012534402 _10_ MAC  --- 106 message 209 [0 a000000 ffff0008 0] ------- [10:42 -1:42 10 0] 
s 0.012631483 _14_ MAC  --- 110 message 209 [0 e000000 ffff0008 0] ------- [14:42 -1:42 10 0] 
s 0.012711638 _8_ MAC  --- 104 message 209 [0 8000000 ffff0008 0] ------- [8:42 -1:42 10 0] 
s 0.012750156 _9_ MAC  --- 105 message 209 [0 9000000 ffff0008 0] ------- [9:42 -1:42 10 0] 
s 0.012786130 _15_ MAC  --- 111 message 209 [0 f000000 ffff0008 0] ------- [15:42 -1:42 10 0] 
s 0.012846525 _13_ MAC  --- 109 message 209 [0 d000000 ffff0008 0] ------- [13:42 -1:42 10 0] 
s 0.013021561 _5_ MAC  --- 101 message 209 [0 5000000 ffff0008 0] ------- [5:42 -1:42 10 0] 