s 0.000000000 _1_ AGT  --- 1 message 209 [0 0 0 0] ------- [1:42 -1:42 10 0] 
s 0.000000000 _2_ AGT  --- 2 message 209 [0 0 0 0] ------- [2:42 -1:42 10 0] 
s 0.000000000 _1_ AGT  --- -1 message 209 [0 0 0 0] ------- [1:42 -1:42 10 0] 
s 0.000000000 _2_ AGT  --- -1 message 209 [0 0 0 0] ------- [2:42 -1:42 10 0] 
s 0.000309617 _2_ MAC  --- 2 message 209 [0 2000000 ffff0008 0] ------- [2:42 -1:42 10 0] 
s 0.000381244 _1_ MAC  --- 1 message 209 [0 1000000 ffff0008 0] ------- [1:42 -1:42 10 0] 
r 0.000590264 _0_ MAC  --- 1 message 209 [0 1000000 ffff0008 0] ------- [1:42 -1:42 10 0] 
r 0.000590264 _0_ AGT  --- 1 message 209 [0 1000000 ffff0008 0] ------- [1:42 -1:42 10 0] 
s 0.040000000 _1_ AGT  --- 4 message 209 [0 0 0 0] ------- [1:42 -1:42 10 0] 
s 0.040000000 _2_ AGT  --- 5 message 209 [0 0 0 0] ------- [2:42 -1:42 10 0] 
s 0.040866802 _2_ MAC  --- 5 message 209 [0 2000000 ffff0008 0] ------- [2:42 -1:42 10 0] 
s 0.040996108 _1_ MAC  --- 4 message 209 [0 1000000 ffff0008 0] ------- [1:42 -1:42 10 0] 
r 0.041205128 _0_ MAC  --- 4 message 209 [0 1000000 ffff0008 0] ------- [1:42 -1:42 10 0] 
r 0.041205128 _0_ AGT  --- 4 message 209 [0 1000000 ffff0008 0] ------- [1:42 -1:42 10 0] 
s 0.080000000 _1_ AGT  --- 7 message 209 [0 0 0 0] ------- [1:42 -1:42 10 0] 
s 0.080000000 _2_ AGT  --- 8 message 209 [0 0 0 0] ------- [2:42 -1:42 10 0] 
s 0.081360436 _2_ MAC  --- 8 message 209 [0 2000000 ffff0008 0] ------- [2:42 -1:42 10 0] 
s 0.081541866 _1_ MAC  --- 7 message 209 [0 1000000 ffff0008 0] ------- [1:42 -1:42 10 0] 
r 0.081750886 _0_ MAC  --- 7 message 209 [0 1000000 ffff0008 0] ------- [1:42 -1:42 10 0] 
r 0.081750886 _0_ AGT  --- 7 message 209 [0 1000000 ffff0008 0] ------- [1:42 -1:42 10 0] 
s 0.120000000 _1_ AGT  --- 10 message 209 [0 0 0 0] ------- [1:42 -1:42 10 0] 
s 0.120000000 _2_ AGT  --- 11 message 209 [0 0 0 0] ------- [2:42 -1:42 10 0] 
s 0.121949595 _1_ MAC  --- 10 message 209 [0 1000000 ffff0008 0] ------- [1:42 -1:42 10 0] 
s 0.122035821 _2_ MAC  --- 11 message 209 [0 2000000 ffff0008 0] ------- [2:42 -1:42 10 0] 
r 0.122158615 _0_ MAC  --- 10 message 209 [0 1000000 ffff0008 0] ------- [1:42 -1:42 10 0] 
r 0.122158615 _0_ AGT  --- 10 message 209 [0 1000000 ffff0008 0] ------- [1:42 -1:42 10 0] 
s 0.160000000 _1_ AGT  --- 13 message 209 [0 0 0 0] ------- [1:42 -1:42 10 0] 
s 0.160000000 _2_ AGT  --- 14 message 209 [0 0 0 0] ------- [2:42 -1:42 10 0] 
s 0.162600239 _2_ MAC  --- 14 message 209 [0 2000000 ffff0008 0] ------- [2:42 -1:42 10 0] 
s 0.162667883 _1_ MAC  --- 13 message 209 [0 1000000 ffff0008 0] ------- [1:42 -1:42 10 0] 
r 0.162876903 _0_ MAC  --- 13 message 209 [0 1000000 ffff0008 0] ------- [1:42 -1:42 10 0] 
r 0.162876903 _0_ AGT  --- 13 message 209 [0 1000000 ffff0008 0] ------- [1:42 -1:42 10 0] 
s 0.200000000 _1_ AGT  --- 16 message 209 [0 0 0 0] ------- [1:42 -1:42 10 0] 
s 0.200000000 _2_ AGT  --- 17 message 209 [0 0 0 0] ------- [2:42 -1:42 10 0] 
s 0.203066690 _2_ MAC  --- 17 message 209 [0 2000000 ffff0008 0] ------- [2:42 -1:42 10 0] 
s 0.203107594 _1_ MAC  --- 16 message 209 [0 1000000 ffff0008 0] ------- [1:42 -1:42 10 0] 
r 0.203316614 _0_ MAC  --- 16 message 209 [0 1000000 ffff0008 0] ------- [1:42 -1:42 10 0] 
r 0.203316614 _0_ AGT  --- 16 message 209 [0 1000000 ffff0008 0] ------- [1:42 -1:42 10 0] 
s 0.240000000 _1_ AGT  --- 19 message 209 [0 0 0 0] ------- [1:42 -1:42 10 0] 
s 0.240000000 _2_ AGT  --- 20 message 209 [0 0 0 0] ------- [2:42 -1:42 10 0] 
s 0.243515669 _2_ MAC  --- 20 message 209 [0 2000000 ffff0008 0] ------- [2:42 -1:42 10 0] 
s 0.243586744 _1_ MAC  --- 19 message 209 [0 1000000 ffff0008 0] ------- [1:42 -1:42 10 0] 
r 0.243795764 _0_ MAC  --- 19 message 209 [0 1000000 ffff0008 0] ------- [1:42 -1:42 10 0] 
r 0.243795764 _0_ AGT  --- 19 message 209 [0 1000000 ffff0008 0] ------- [1:42 -1:42 10 0] 
s 0.280000000 _1_ AGT  --- 22 message 209 [0 0 0 0] ------- [1:42 -1:42 10 0] 
s 0.280000000 _2_ AGT  --- 23 message 209 [0 0 0 0] ------- [2:42 -1:42 10 0] 
s 0.284178505 _2_ MAC  --- 23 message 209 [0 2000000 ffff0008 0] ------- [2:42 -1:42 10 0] 
s 0.284327022 _1_ MAC  --- 22 message 209 [0 1000000 ffff0008 0] ------- [1:42 -1:42 10 0] 
r 0.284536042 _0_ MAC  --- 22 message 209 [0 1000000 ffff0008 0] ------- [1:42 -1:42 10 0] 
r 0.284536042 _0_ AGT  --- 22 message 209 [0 1000000 ffff0008 0] ------- [1:42 -1:42 10 0] 
s 0.320000000 _1_ AGT  --- 25 message 209 [0 0 0 0] ------- [1:42 -1:42 10 0] 
s 0.320000000 _2_ AGT  --- 26 message 209 [0 0 0 0] ------- [2:42 -1:42 10 0] 
s 0.324718937 _1_ MAC  --- 25 message 209 [0 1000000 ffff0008 0] ------- [1:42 -1:42 10 0] 
s 0.324886519 _2_ MAC  --- 26 message 209 [0 2000000 ffff0008 0] ------- [2:42 -1:42 10 0] 
r 0.324927957 _0_ MAC  --- 25 message 209 [0 1000000 ffff0008 0] ------- [1:42 -1:42 10 0] 
r 0.324927957 _0_ AGT  --- 25 message 209 [0 1000000 ffff0008 0] ------- [1:42 -1:42 10 0] 
s 0.360000000 _1_ AGT  --- 28 message 209 [0 0 0 0] ------- [1:42 -1:42 10 0] 
s 0.360000000 _2_ AGT  --- 29 message 209 [0 0 0 0] ------- [2:42 -1:42 10 0] 
s 0.365389496 _1_ MAC  --- 28 message 209 [0 1000000 ffff0008 0] ------- [1:42 -1:42 10 0] 
s 0.365499124 _2_ MAC  --- 29 message 209 [0 2000000 ffff0008 0] ------- [2:42 -1:42 10 0] 
r 0.365598516 _0_ MAC  --- 28 message 209 [0 1000000 ffff0008 0] ------- [1:42 -1:42 10 0] 
r 0.365598516 _0_ AGT  --- 28 message 209 [0 1000000 ffff0008 0] ------- [1:42 -1:42 10 0] 
s 0.400000000 _1_ AGT  --- 31 message 209 [0 0 0 0] ------- [1:42 -1:42 10 0] 
s 0.400000000 _2_ AGT  --- 32 message 209 [0 0 0 0] ------- [2:42 -1:42 10 0] 
s 0.405773272 _1_ MAC  --- 31 message 209 [0 1000000 ffff0008 0] ------- [1:42 -1:42 10 0] 
s 0.405867675 _2_ MAC  --- 32 message 209 [0 2000000 ffff0008 0] ------- [2:42 -1:42 10 0] 
r 0.405982292 _0_ MAC  --- 31 message 209 [0 1000000 ffff0008 0] ------- [1:42 -1:42 10 0] 
r 0.405982292 _0_ AGT  --- 31 message 209 [0 1000000 ffff0008 0] ------- [1:42 -1:42 10 0] 
s 0.440000000 _1_ AGT  --- 34 message 209 [0 0 0 0] ------- [1:42 -1:42 10 0] 
s 0.440000000 _2_ AGT  --- 35 message 209 [0 0 0 0] ------- [2:42 -1:42 10 0] 
s 0.446354912 _2_ MAC  --- 35 message 209 [0 2000000 ffff0008 0] ------- [2:42 -1:42 10 0] 
s 0.446518543 _1_ MAC  --- 34 message 209 [0 1000000 ffff0008 0] ------- [1:42 -1:42 10 0] 
r 0.446727563 _0_ MAC  --- 34 message 209 [0 1000000 ffff0008 0] ------- [1:42 -1:42 10 0] 
r 0.446727563 _0_ AGT  --- 34 message 209 [0 1000000 ffff0008 0] ------- [1:42 -1:42 10 0] 
s 0.480000000 _1_ AGT  --- 37 message 209 [0 0 0 0] ------- [1:42 -1:42 10 0] 
s 0.480000000 _2_ AGT  --- 38 message 209 [0 0 0 0] ------- [2:42 -1:42 10 0] 
s 0.486848059 _2_ MAC  --- 38 message 209 [0 2000000 ffff0008 0] ------- [2:42 -1:42 10 0] 
r 0.487057079 _1_ MAC  --- 38 message 209 [0 2000000 ffff0008 0] ------- [2:42 -1:42 10 0] 
r 0.487057079 _1_ AGT  --- 38 message 209 [0 2000000 ffff0008 0] ------- [2:42 -1:42 10 0] 
s 0.487057079 _1_ AGT  --- 38 message 209 [0 2000000 ffff0008 0] ------- [2:42 -1:42 9 0] 
s 0.487222238 _1_ MAC  --- 37 message 209 [0 1000000 ffff0008 0] ------- [1:42 -1:42 10 0] 
r 0.487431258 _0_ MAC  --- 37 message 209 [0 1000000 ffff0008 0] ------- [1:42 -1:42 10 0] 
r 0.487431258 _2_ MAC  --- 37 message 209 [0 1000000 ffff0008 0] ------- [1:42 -1:42 10 0] 
r 0.487431258 _0_ AGT  --- 37 message 209 [0 1000000 ffff0008 0] ------- [1:42 -1:42 10 0] 
r 0.487431258 _2_ AGT  --- 37 message 209 [0 1000000 ffff0008 0] ------- [1:42 -1:42 10 0] 
s 0.487431258 _2_ AGT  --- 37 message 209 [0 1000000 ffff0008 0] ------- [1:42 -1:42 9 0] 
s 0.487581238 _1_ MAC  --- 38 message 209 [0 1000000 ffff0008 0] ------- [2:42 -1:42 9 0] 
r 0.487790258 _0_ MAC  --- 38 message 209 [0 1000000 ffff0008 0] ------- [2:42 -1:42 9 0] 
r 0.487790258 _2_ MAC  --- 38 message 209 [0 1000000 ffff0008 0] ------- [2:42 -1:42 9 0] 
r 0.487790258 _0_ AGT  --- 38 message 209 [0 1000000 ffff0008 0] ------- [2:42 -1:42 9 0] 
r 0.487790258 _2_ AGT  --- 38 message 209 [0 1000000 ffff0008 0] ------- [2:42 -1:42 9 0] 
s 0.520000000 _1_ AGT  --- 40 message 209 [0 0 0 0] ------- [1:42 -1:42 10 0] 
s 0.520000000 _2_ AGT  --- 41 message 209 [0 0 0 0] ------- [2:42 -1:42 10 0] 
s 0.527470518 _2_ MAC  --- 41 message 209 [0 2000000 ffff0008 0] ------- [2:42 -1:42 10 0] 
r 0.527679538 _1_ MAC  --- 41 message 209 [0 2000000 ffff0008 0] ------- [2:42 -1:42 10 0] 
r 0.527679538 _1_ AGT  --- 41 message 209 [0 2000000 ffff0008 0] ------- [2:42 -1:42 10 0] 
s 0.527679538 _1_ AGT  --- 41 message 209 [0 2000000 ffff0008 0] ------- [2:42 -1:42 9 0] 
s 0.527829518 _2_ MAC  --- 37 message 209 [0 2000000 ffff0008 0] ------- [1:42 -1:42 9 0] 
r 0.528038538 _1_ MAC  --- 37 message 209 [0 2000000 ffff0008 0] ------- [1:42 -1:42 9 0] 
r 0.528038538 _1_ AGT  --- 37 message 209 [0 2000000 ffff0008 0] ------- [1:42 -1:42 9 0] 
s 0.528304534 _1_ MAC  --- 40 message 209 [0 1000000 ffff0008 0] ------- [1:42 -1:42 10 0] 
r 0.528513554 _0_ MAC  --- 40 message 209 [0 1000000 ffff0008 0] ------- [1:42 -1:42 10 0] 
r 0.528513554 _2_ MAC  --- 40 message 209 [0 1000000 ffff0008 0] ------- [1:42 -1:42 10 0] 
r 0.528513554 _0_ AGT  --- 40 message 209 [0 1000000 ffff0008 0] ------- [1:42 -1:42 10 0] 
r 0.528513554 _2_ AGT  --- 40 message 209 [0 1000000 ffff0008 0] ------- [1:42 -1:42 10 0] 
s 0.528513554 _2_ AGT  --- 40 message 209 [0 1000000 ffff0008 0] ------- [1:42 -1:42 9 0] 
s 0.528663534 _1_ MAC  --- 41 message 209 [0 1000000 ffff0008 0] ------- [2:42 -1:42 9 0] 
r 0.528872554 _0_ MAC  --- 41 message 209 [0 1000000 ffff0008 0] ------- [2:42 -1:42 9 0] 
r 0.528872554 _2_ MAC  --- 41 message 209 [0 1000000 ffff0008 0] ------- [2:42 -1:42 9 0] 
r 0.528872554 _0_ AGT  --- 41 message 209 [0 1000000 ffff0008 0] ------- [2:42 -1:42 9 0] 
r 0.528872554 _2_ AGT  --- 41 message 209 [0 1000000 ffff0008 0] ------- [2:42 -1:42 9 0] 
s 0.560000000 _1_ AGT  --- 43 message 209 [0 0 0 0] ------- [1:42 -1:42 10 0] 
s 0.560000000 _2_ AGT  --- 44 message 209 [0 0 0 0] ------- [2:42 -1:42 10 0] 
s 0.568457445 _2_ MAC  --- 44 message 209 [0 2000000 ffff0008 0] ------- [2:42 -1:42 10 0] 
r 0.568666465 _1_ MAC  --- 44 message 209 [0 2000000 ffff0008 0] ------- [2:42 -1:42 10 0] 
r 0.568666465 _1_ AGT  --- 44 message 209 [0 2000000 ffff0008 0] ------- [2:42 -1:42 10 0] 
s 0.568666465 _1_ AGT  --- 44 message 209 [0 2000000 ffff0008 0] ------- [2:42 -1:42 9 0] 
s 0.568816445 _2_ MAC  --- 40 message 209 [0 2000000 ffff0008 0] ------- [1:42 -1:42 9 0] 
r 0.569025465 _1_ MAC  --- 40 message 209 [0 2000000 ffff0008 0] ------- [1:42 -1:42 9 0] 
r 0.569025465 _1_ AGT  --- 40 message 209 [0 2000000 ffff0008 0] ------- [1:42 -1:42 9 0] 
s 0.569200680 _1_ MAC  --- 43 message 209 [0 1000000 ffff0008 0] ------- [1:42 -1:42 10 0] 
r 0.569409700 _0_ MAC  --- 43 message 209 [0 1000000 ffff0008 0] ------- [1:42 -1:42 10 0] 
r 0.569409700 _2_ MAC  --- 43 message 209 [0 1000000 ffff0008 0] ------- [1:42 -1:42 10 0] 
r 0.569409700 _0_ AGT  --- 43 message 209 [0 1000000 ffff0008 0] ------- [1:42 -1:42 10 0] 
r 0.569409700 _2_ AGT  --- 43 message 209 [0 1000000 ffff0008 0] ------- [1:42 -1:42 10 0] 
s 0.569409700 _2_ AGT  --- 43 message 209 [0 1000000 ffff0008 0] ------- [1:42 -1:42 9 0] 
s 0.569559680 _1_ MAC  --- 44 message 209 [0 1000000 ffff0008 0] ------- [2:42 -1:42 9 0] 
r 0.569768700 _0_ MAC  --- 44 message 209 [0 1000000 ffff0008 0] ------- [2:42 -1:42 9 0] 
r 0.569768700 _2_ MAC  --- 44 message 209 [0 1000000 ffff0008 0] ------- [2:42 -1:42 9 0] 
r 0.569768700 _0_ AGT  --- 44 message 209 [0 1000000 ffff0008 0] ------- [2:42 -1:42 9 0] 
r 0.569768700 _2_ AGT  --- 44 message 209 [0 1000000 ffff0008 0] ------- [2:42 -1:42 9 0] 
s 0.600000000 _1_ AGT  --- 46 message 209 [0 0 0 0] ------- [1:42 -1:42 10 0] 
s 0.600000000 _2_ AGT  --- 47 message 209 [0 0 0 0] ------- [2:42 -1:42 10 0] 
s 0.609543113 _2_ MAC  --- 47 message 209 [0 2000000 ffff0008 0] ------- [2:42 -1:42 10 0] 
r 0.609752133 _1_ MAC  --- 47 message 209 [0 2000000 ffff0008 0] ------- [2:42 -1:42 10 0] 
r 0.609752133 _1_ AGT  --- 47 message 209 [0 2000000 ffff0008 0] ------- [2:42 -1:42 10 0] 
s 0.609752133 _1_ AGT  --- 47 message 209 [0 2000000 ffff0008 0] ------- [2:42 -1:42 9 0] 
s 0.609902113 _2_ MAC  --- 43 message 209 [0 2000000 ffff0008 0] ------- [1:42 -1:42 9 0] 
r 0.610111133 _1_ MAC  --- 43 message 209 [0 2000000 ffff0008 0] ------- [1:42 -1:42 9 0] 
r 0.610111133 _1_ AGT  --- 43 message 209 [0 2000000 ffff0008 0] ------- [1:42 -1:42 9 0] 
s 0.610262615 _1_ MAC  --- 46 message 209 [0 1000000 ffff0008 0] ------- [1:42 -1:42 10 0] 
r 0.610471635 _0_ MAC  --- 46 message 209 [0 1000000 ffff0008 0] ------- [1:42 -1:42 10 0] 
r 0.610471635 _2_ MAC  --- 46 message 209 [0 1000000 ffff0008 0] ------- [1:42 -1:42 10 0] 
r 0.610471635 _0_ AGT  --- 46 message 209 [0 1000000 ffff0008 0] ------- [1:42 -1:42 10 0] 
r 0.610471635 _2_ AGT  --- 46 message 209 [0 1000000 ffff0008 0] ------- [1:42 -1:42 10 0] 
s 0.610471635 _2_ AGT  --- 46 message 209 [0 1000000 ffff0008 0] ------- [1:42 -1:42 9 0] 
s 0.610621615 _1_ MAC  --- 47 message 209 [0 1000000 ffff0008 0] ------- [2:42 -1:42 9 0] 
r 0.610830635 _0_ MAC  --- 47 message 209 [0 1000000 ffff0008 0] ------- [2:42 -1:42 9 0] 
r 0.610830635 _2_ MAC  --- 47 message 209 [0 1000000 ffff0008 0] ------- [2:42 -1:42 9 0] 
r 0.610830635 _0_ AGT  --- 47 message 209 [0 1000000 ffff0008 0] ------- [2:42 -1:42 9 0] 
r 0.610830635 _2_ AGT  --- 47 message 209 [0 1000000 ffff0008 0] ------- [2:42 -1:42 9 0] 
s 0.640000000 _1_ AGT  --- 49 message 209 [0 0 0 0] ------- [1:42 -1:42 10 0] 
s 0.640000000 _2_ AGT  --- 50 message 209 [0 0 0 0] ------- [2:42 -1:42 10 0] 
s 0.650748875 _2_ MAC  --- 50 message 209 [0 2000000 ffff0008 0] ------- [2:42 -1:42 10 0] 
s 0.651046468 _1_ MAC  --- 49 message 209 [0 1000000 ffff0008 0] ------- [1:42 -1:42 10 0] 
s 0.651107875 _2_ MAC  --- 46 message 209 [0 2000000 ffff0008 0] ------- [1:42 -1:42 9 0] 
r 0.651255488 _0_ MAC  --- 49 message 209 [0 1000000 ffff0008 0] ------- [1:42 -1:42 10 0] 
r 0.651255488 _0_ AGT  --- 49 message 209 [0 1000000 ffff0008 0] ------- [1:42 -1:42 10 0] 
s 0.680000000 _1_ AGT  --- 52 message 209 [0 0 0 0] ------- [1:42 -1:42 10 0] 
s 0.680000000 _2_ AGT  --- 53 message 209 [0 0 0 0] ------- [2:42 -1:42 10 0] 
s 0.691505268 _1_ MAC  --- 52 message 209 [0 1000000 ffff0008 0] ------- [1:42 -1:42 10 0] 
s 0.691589271 _2_ MAC  --- 53 message 209 [0 2000000 ffff0008 0] ------- [2:42 -1:42 10 0] 
r 0.691714288 _0_ MAC  --- 52 message 209 [0 1000000 ffff0008 0] ------- [1:42 -1:42 10 0] 
r 0.691714288 _0_ AGT  --- 52 message 209 [0 1000000 ffff0008 0] ------- [1:42 -1:42 10 0] 
s 0.720000000 _1_ AGT  --- 55 message 209 [0 0 0 0] ------- [1:42 -1:42 10 0] 
s 0.720000000 _2_ AGT  --- 56 message 209 [0 0 0 0] ------- [2:42 -1:42 10 0] 
s 0.732116879 _1_ MAC  --- 55 message 209 [0 1000000 ffff0008 0] ------- [1:42 -1:42 10 0] 
r 0.732325899 _0_ MAC  --- 55 message 209 [0 1000000 ffff0008 0] ------- [1:42 -1:42 10 0] 
r 0.732325899 _0_ AGT  --- 55 message 209 [0 1000000 ffff0008 0] ------- [1:42 -1:42 10 0] 
s 0.732364456 _2_ MAC  --- 56 message 209 [0 2000000 ffff0008 0] ------- [2:42 -1:42 10 0] 
s 0.760000000 _1_ AGT  --- 58 message 209 [0 0 0 0] ------- [1:42 -1:42 10 0] 
s 0.760000000 _2_ AGT  --- 59 message 209 [0 0 0 0] ------- [2:42 -1:42 10 0] 
s 0.772647004 _1_ MAC  --- 58 message 209 [0 1000000 ffff0008 0] ------- [1:42 -1:42 10 0] 
s 0.772835356 _2_ MAC  --- 59 message 209 [0 2000000 ffff0008 0] ------- [2:42 -1:42 10 0] 
r 0.772856024 _0_ MAC  --- 58 message 209 [0 1000000 ffff0008 0] ------- [1:42 -1:42 10 0] 
r 0.772856024 _0_ AGT  --- 58 message 209 [0 1000000 ffff0008 0] ------- [1:42 -1:42 10 0] 
s 0.800000000 _1_ AGT  --- 61 message 209 [0 0 0 0] ------- [1:42 -1:42 10 0] 
s 0.800000000 _2_ AGT  --- 62 message 209 [0 0 0 0] ------- [2:42 -1:42 10 0] 
s 0.813127606 _1_ MAC  --- 61 message 209 [0 1000000 ffff0008 0] ------- [1:42 -1:42 10 0] 
r 0.813336626 _0_ MAC  --- 61 message 209 [0 1000000 ffff0008 0] ------- [1:42 -1:42 10 0] 
r 0.813336626 _0_ AGT  --- 61 message 209 [0 1000000 ffff0008 0] ------- [1:42 -1:42 10 0] 
s 0.813472932 _2_ MAC  --- 62 message 209 [0 2000000 ffff0008 0] ------- [2:42 -1:42 10 0] 
s 0.840000000 _1_ AGT  --- 64 message 209 [0 0 0 0] ------- [1:42 -1:42 10 0] 
s 0.840000000 _2_ AGT  --- 65 message 209 [0 0 0 0] ------- [2:42 -1:42 10 0] 
s 0.853679217 _1_ MAC  --- 64 message 209 [0 1000000 ffff0008 0] ------- [1:42 -1:42 10 0] 
r 0.853888237 _0_ MAC  --- 64 message 209 [0 1000000 ffff0008 0] ------- [1:42 -1:42 10 0] 
r 0.853888237 _2_ MAC  --- 64 message 209 [0 1000000 ffff0008 0] ------- [1:42 -1:42 10 0] 
r 0.853888237 _0_ AGT  --- 64 message 209 [0 1000000 ffff0008 0] ------- [1:42 -1:42 10 0] 
r 0.853888237 _2_ AGT  --- 64 message 209 [0 1000000 ffff0008 0] ------- [1:42 -1:42 10 0] 
s 0.853888237 _2_ AGT  --- 64 message 209 [0 1000000 ffff0008 0] ------- [1:42 -1:42 9 0] 
s 0.854043513 _2_ MAC  --- 65 message 209 [0 2000000 ffff0008 0] ------- [2:42 -1:42 10 0] 
r 0.854252533 _1_ MAC  --- 65 message 209 [0 2000000 ffff0008 0] ------- [2:42 -1:42 10 0] 
r 0.854252533 _1_ AGT  --- 65 message 209 [0 2000000 ffff0008 0] ------- [2:42 -1:42 10 0] 
s 0.854252533 _1_ AGT  --- 65 message 209 [0 2000000 ffff0008 0] ------- [2:42 -1:42 9 0] 
s 0.854402513 _2_ MAC  --- 64 message 209 [0 2000000 ffff0008 0] ------- [1:42 -1:42 9 0] 
r 0.854611533 _1_ MAC  --- 64 message 209 [0 2000000 ffff0008 0] ------- [1:42 -1:42 9 0] 
r 0.854611533 _1_ AGT  --- 64 message 209 [0 2000000 ffff0008 0] ------- [1:42 -1:42 9 0] 
s 0.880000000 _1_ AGT  --- 67 message 209 [0 0 0 0] ------- [1:42 -1:42 10 0] 
s 0.880000000 _2_ AGT  --- 68 message 209 [0 0 0 0] ------- [2:42 -1:42 10 0] 
s 0.894436943 _1_ MAC  --- 67 message 209 [0 1000000 ffff0008 0] ------- [1:42 -1:42 10 0] 
r 0.894645963 _0_ MAC  --- 67 message 209 [0 1000000 ffff0008 0] ------- [1:42 -1:42 10 0] 
r 0.894645963 _2_ MAC  --- 67 message 209 [0 1000000 ffff0008 0] ------- [1:42 -1:42 10 0] 
r 0.894645963 _0_ AGT  --- 67 message 209 [0 1000000 ffff0008 0] ------- [1:42 -1:42 10 0] 
r 0.894645963 _2_ AGT  --- 67 message 209 [0 1000000 ffff0008 0] ------- [1:42 -1:42 10 0] 
s 0.894645963 _2_ AGT  --- 67 message 209 [0 1000000 ffff0008 0] ------- [1:42 -1:42 9 0] 
s 0.894795943 _1_ MAC  --- 65 message 209 [0 1000000 ffff0008 0] ------- [2:42 -1:42 9 0] 
r 0.895004963 _0_ MAC  --- 65 message 209 [0 1000000 ffff0008 0] ------- [2:42 -1:42 9 0] 
r 0.895004963 _2_ MAC  --- 65 message 209 [0 1000000 ffff0008 0] ------- [2:42 -1:42 9 0] 
r 0.895004963 _0_ AGT  --- 65 message 209 [0 1000000 ffff0008 0] ------- [2:42 -1:42 9 0] 
r 0.895004963 _2_ AGT  --- 65 message 209 [0 1000000 ffff0008 0] ------- [2:42 -1:42 9 0] 
s 0.895257960 _2_ MAC  --- 68 message 209 [0 2000000 ffff0008 0] ------- [2:42 -1:42 10 0] 
r 0.895466980 _1_ MAC  --- 68 message 209 [0 2000000 ffff0008 0] ------- [2:42 -1:42 10 0] 
r 0.895466980 _1_ AGT  --- 68 message 209 [0 2000000 ffff0008 0] ------- [2:42 -1:42 10 0] 
s 0.895466980 _1_ AGT  --- 68 message 209 [0 2000000 ffff0008 0] ------- [2:42 -1:42 9 0] 
s 0.895616960 _2_ MAC  --- 67 message 209 [0 2000000 ffff0008 0] ------- [1:42 -1:42 9 0] 
r 0.895825980 _1_ MAC  --- 67 message 209 [0 2000000 ffff0008 0] ------- [1:42 -1:42 9 0] 
r 0.895825980 _1_ AGT  --- 67 message 209 [0 2000000 ffff0008 0] ------- [1:42 -1:42 9 0] 
s 0.920000000 _1_ AGT  --- 70 message 209 [0 0 0 0] ------- [1:42 -1:42 10 0] 
s 0.920000000 _2_ AGT  --- 71 message 209 [0 0 0 0] ------- [2:42 -1:42 10 0] 
s 0.935247802 _1_ MAC  --- 70 message 209 [0 1000000 ffff0008 0] ------- [1:42 -1:42 10 0] 
r 0.935456822 _0_ MAC  --- 70 message 209 [0 1000000 ffff0008 0] ------- [1:42 -1:42 10 0] 
r 0.935456822 _2_ MAC  --- 70 message 209 [0 1000000 ffff0008 0] ------- [1:42 -1:42 10 0] 
r 0.935456822 _0_ AGT  --- 70 message 209 [0 1000000 ffff0008 0] ------- [1:42 -1:42 10 0] 
r 0.935456822 _2_ AGT  --- 70 message 209 [0 1000000 ffff0008 0] ------- [1:42 -1:42 10 0] 
s 0.935456822 _2_ AGT  --- 70 message 209 [0 1000000 ffff0008 0] ------- [1:42 -1:42 9 0] 
s 0.935606802 _1_ MAC  --- 68 message 209 [0 1000000 ffff0008 0] ------- [2:42 -1:42 9 0] 
r 0.935815822 _0_ MAC  --- 68 message 209 [0 1000000 ffff0008 0] ------- [2:42 -1:42 9 0] 
r 0.935815822 _2_ MAC  --- 68 message 209 [0 1000000 ffff0008 0] ------- [2:42 -1:42 9 0] 
r 0.935815822 _0_ AGT  --- 68 message 209 [0 1000000 ffff0008 0] ------- [2:42 -1:42 9 0] 
r 0.935815822 _2_ AGT  --- 68 message 209 [0 1000000 ffff0008 0] ------- [2:42 -1:42 9 0] 
s 0.936223699 _2_ MAC  --- 71 message 209 [0 2000000 ffff0008 0] ------- [2:42 -1:42 10 0] 
r 0.936432719 _1_ MAC  --- 71 message 209 [0 2000000 ffff0008 0] ------- [2:42 -1:42 10 0] 
r 0.936432719 _1_ AGT  --- 71 message 209 [0 2000000 ffff0008 0] ------- [2:42 -1:42 10 0] 
s 0.936432719 _1_ AGT  --- 71 message 209 [0 2000000 ffff0008 0] ------- [2:42 -1:42 9 0] 
s 0.936582699 _2_ MAC  --- 70 message 209 [0 2000000 ffff0008 0] ------- [1:42 -1:42 9 0] 
r 0.936791719 _1_ MAC  --- 70 message 209 [0 2000000 ffff0008 0] ------- [1:42 -1:42 9 0] 
r 0.936791719 _1_ AGT  --- 70 message 209 [0 2000000 ffff0008 0] ------- [1:42 -1:42 9 0] 
s 0.960000000 _1_ AGT  --- 73 message 209 [0 0 0 0] ------- [1:42 -1:42 10 0] 
s 0.960000000 _2_ AGT  --- 74 message 209 [0 0 0 0] ------- [2:42 -1:42 10 0] 
s 0.975995164 _1_ MAC  --- 73 message 209 [0 1000000 ffff0008 0] ------- [1:42 -1:42 10 0] 
r 0.976204184 _0_ MAC  --- 73 message 209 [0 1000000 ffff0008 0] ------- [1:42 -1:42 10 0] 
r 0.976204184 _2_ MAC  --- 73 message 209 [0 1000000 ffff0008 0] ------- [1:42 -1:42 10 0] 
r 0.976204184 _0_ AGT  --- 73 message 209 [0 1000000 ffff0008 0] ------- [1:42 -1:42 10 0] 
r 0.976204184 _2_ AGT  --- 73 message 209 [0 1000000 ffff0008 0] ------- [1:42 -1:42 10 0] 
s 0.976204184 _2_ AGT  --- 73 message 209 [0 1000000 ffff0008 0] ------- [1:42 -1:42 9 0] 
s 0.976354164 _1_ MAC  --- 71 message 209 [0 1000000 ffff0008 0] ------- [2:42 -1:42 9 0] 
r 0.976563184 _0_ MAC  --- 71 message 209 [0 1000000 ffff0008 0] ------- [2:42 -1:42 9 0] 
r 0.976563184 _2_ MAC  --- 71 message 209 [0 1000000 ffff0008 0] ------- [2:42 -1:42 9 0] 
r 0.976563184 _0_ AGT  --- 71 message 209 [0 1000000 ffff0008 0] ------- [2:42 -1:42 9 0] 
r 0.976563184 _2_ AGT  --- 71 message 209 [0 1000000 ffff0008 0] ------- [2:42 -1:42 9 0] 
s 0.977346118 _2_ MAC  --- 74 message 209 [0 2000000 ffff0008 0] ------- [2:42 -1:42 10 0] 
r 0.977555138 _1_ MAC  --- 74 message 209 [0 2000000 ffff0008 0] ------- [2:42 -1:42 10 0] 
r 0.977555138 _1_ AGT  --- 74 message 209 [0 2000000 ffff0008 0] ------- [2:42 -1:42 10 0] 
s 0.977555138 _1_ AGT  --- 74 message 209 [0 2000000 ffff0008 0] ------- [2:42 -1:42 9 0] 
s 0.977705118 _2_ MAC  --- 73 message 209 [0 2000000 ffff0008 0] ------- [1:42 -1:42 9 0] 
r 0.977914138 _1_ MAC  --- 73 message 209 [0 2000000 ffff0008 0] ------- [1:42 -1:42 9 0] 
r 0.977914138 _1_ AGT  --- 73 message 209 [0 2000000 ffff0008 0] ------- [1:42 -1:42 9 0] 
s 1.000000000 _1_ AGT  --- 76 message 209 [0 0 0 0] ------- [1:42 -1:42 10 0] 
s 1.000000000 _2_ AGT  --- 77 message 209 [0 0 0 0] ------- [2:42 -1:42 10 0] 
s 1.016714509 _1_ MAC  --- 76 message 209 [0 1000000 ffff0008 0] ------- [1:42 -1:42 10 0] 
r 1.016923529 _0_ MAC  --- 76 message 209 [0 1000000 ffff0008 0] ------- [1:42 -1:42 10 0] 
r 1.016923529 _2_ MAC  --- 76 message 209 [0 1000000 ffff0008 0] ------- [1:42 -1:42 10 0] 
r 1.016923529 _0_ AGT  --- 76 message 209 [0 1000000 ffff0008 0] ------- [1:42 -1:42 10 0] 
r 1.016923529 _2_ AGT  --- 76 message 209 [0 1000000 ffff0008 0] ------- [1:42 -1:42 10 0] 
s 1.016923529 _2_ AGT  --- 76 message 209 [0 1000000 ffff0008 0] ------- [1:42 -1:42 9 0] 
s 1.017073509 _1_ MAC  --- 74 message 209 [0 1000000 ffff0008 0] ------- [2:42 -1:42 9 0] 
r 1.017282529 _0_ MAC  --- 74 message 209 [0 1000000 ffff0008 0] ------- [2:42 -1:42 9 0] 
r 1.017282529 _2_ MAC  --- 74 message 209 [0 1000000 ffff0008 0] ------- [2:42 -1:42 9 0] 
r 1.017282529 _0_ AGT  --- 74 message 209 [0 1000000 ffff0008 0] ------- [2:42 -1:42 9 0] 
r 1.017282529 _2_ AGT  --- 74 message 209 [0 1000000 ffff0008 0] ------- [2:42 -1:42 9 0] 
s 1.018118255 _2_ MAC  --- 77 message 209 [0 2000000 ffff0008 0] ------- [2:42 -1:42 10 0] 
r 1.018327275 _1_ MAC  --- 77 message 209 [0 2000000 ffff0008 0] ------- [2:42 -1:42 10 0] 
r 1.018327275 _1_ AGT  --- 77 message 209 [0 2000000 ffff0008 0] ------- [2:42 -1:42 10 0] 
s 1.018327275 _1_ AGT  --- 77 message 209 [0 2000000 ffff0008 0] ------- [2:42 -1:42 9 0] 
s 1.018477255 _2_ MAC  --- 76 message 209 [0 2000000 ffff0008 0] ------- [1:42 -1:42 9 0] 
r 1.018686275 _1_ MAC  --- 76 message 209 [0 2000000 ffff0008 0] ------- [1:42 -1:42 9 0] 
r 1.018686275 _1_ AGT  --- 76 message 209 [0 2000000 ffff0008 0] ------- [1:42 -1:42 9 0] 
s 1.040000000 _1_ AGT  --- 79 message 209 [0 0 0 0] ------- [1:42 -1:42 10 0] 
s 1.040000000 _2_ AGT  --- 80 message 209 [0 0 0 0] ------- [2:42 -1:42 10 0] 
s 1.057846478 _1_ MAC  --- 79 message 209 [0 1000000 ffff0008 0] ------- [1:42 -1:42 10 0] 
r 1.058055498 _0_ MAC  --- 79 message 209 [0 1000000 ffff0008 0] ------- [1:42 -1:42 10 0] 
r 1.058055498 _2_ MAC  --- 79 message 209 [0 1000000 ffff0008 0] ------- [1:42 -1:42 10 0] 
r 1.058055498 _0_ AGT  --- 79 message 209 [0 1000000 ffff0008 0] ------- [1:42 -1:42 10 0] 
r 1.058055498 _2_ AGT  --- 79 message 209 [0 1000000 ffff0008 0] ------- [1:42 -1:42 10 0] 
s 1.058055498 _2_ AGT  --- 79 message 209 [0 1000000 ffff0008 0] ------- [1:42 -1:42 9 0] 
s 1.058205478 _1_ MAC  --- 77 message 209 [0 1000000 ffff0008 0] ------- [2:42 -1:42 9 0] 
r 1.058414498 _0_ MAC  --- 77 message 209 [0 1000000 ffff0008 0] ------- [2:42 -1:42 9 0] 
r 1.058414498 _2_ MAC  --- 77 message 209 [0 1000000 ffff0008 0] ------- [2:42 -1:42 9 0] 
r 1.058414498 _0_ AGT  --- 77 message 209 [0 1000000 ffff0008 0] ------- [2:42 -1:42 9 0] 
r 1.058414498 _2_ AGT  --- 77 message 209 [0 1000000 ffff0008 0] ------- [2:42 -1:42 9 0] 
s 1.059223871 _2_ MAC  --- 80 message 209 [0 2000000 ffff0008 0] ------- [2:42 -1:42 10 0] 
r 1.059432891 _1_ MAC  --- 80 message 209 [0 2000000 ffff0008 0] ------- [2:42 -1:42 10 0] 
r 1.059432891 _1_ AGT  --- 80 message 209 [0 2000000 ffff0008 0] ------- [2:42 -1:42 10 0] 
s 1.059432891 _1_ AGT  --- 80 message 209 [0 2000000 ffff0008 0] ------- [2:42 -1:42 9 0] 
s 1.059582871 _2_ MAC  --- 79 message 209 [0 2000000 ffff0008 0] ------- [1:42 -1:42 9 0] 
r 1.059791891 _1_ MAC  --- 79 message 209 [0 2000000 ffff0008 0] ------- [1:42 -1:42 9 0] 
r 1.059791891 _1_ AGT  --- 79 message 209 [0 2000000 ffff0008 0] ------- [1:42 -1:42 9 0] 
s 1.080000000 _1_ AGT  --- 82 message 209 [0 0 0 0] ------- [1:42 -1:42 10 0] 
s 1.080000000 _2_ AGT  --- 83 message 209 [0 0 0 0] ------- [2:42 -1:42 10 0] 
s 1.098746853 _1_ MAC  --- 82 message 209 [0 1000000 ffff0008 0] ------- [1:42 -1:42 10 0] 
r 1.098955873 _0_ MAC  --- 82 message 209 [0 1000000 ffff0008 0] ------- [1:42 -1:42 10 0] 
r 1.098955873 _2_ MAC  --- 82 message 209 [0 1000000 ffff0008 0] ------- [1:42 -1:42 10 0] 
r 1.098955873 _0_ AGT  --- 82 message 209 [0 1000000 ffff0008 0] ------- [1:42 -1:42 10 0] 
r 1.098955873 _2_ AGT  --- 82 message 209 [0 1000000 ffff0008 0] ------- [1:42 -1:42 10 0] 
s 1.098955873 _2_ AGT  --- 82 message 209 [0 1000000 ffff0008 0] ------- [1:42 -1:42 9 0] 
s 1.099105853 _1_ MAC  --- 80 message 209 [0 1000000 ffff0008 0] ------- [2:42 -1:42 9 0] 
r 1.099314873 _0_ MAC  --- 80 message 209 [0 1000000 ffff0008 0] ------- [2:42 -1:42 9 0] 
r 1.099314873 _2_ MAC  --- 80 message 209 [0 1000000 ffff0008 0] ------- [2:42 -1:42 9 0] 
r 1.099314873 _0_ AGT  --- 80 message 209 [0 1000000 ffff0008 0] ------- [2:42 -1:42 9 0] 
r 1.099314873 _2_ AGT  --- 80 message 209 [0 1000000 ffff0008 0] ------- [2:42 -1:42 9 0] 
s 1.099989988 _2_ MAC  --- 83 message 209 [0 2000000 ffff0008 0] ------- [2:42 -1:42 10 0] 
r 1.100199008 _1_ MAC  --- 83 message 209 [0 2000000 ffff0008 0] ------- [2:42 -1:42 10 0] 
r 1.100199008 _1_ AGT  --- 83 message 209 [0 2000000 ffff0008 0] ------- [2:42 -1:42 10 0] 
s 1.100199008 _1_ AGT  --- 83 message 209 [0 2000000 ffff0008 0] ------- [2:42 -1:42 9 0] 
s 1.100348988 _2_ MAC  --- 82 message 209 [0 2000000 ffff0008 0] ------- [1:42 -1:42 9 0] 
r 1.100558008 _1_ MAC  --- 82 message 209 [0 2000000 ffff0008 0] ------- [1:42 -1:42 9 0] 
r 1.100558008 _1_ AGT  --- 82 message 209 [0 2000000 ffff0008 0] ------- [1:42 -1:42 9 0] 
s 1.120000000 _1_ AGT  --- 85 message 209 [0 0 0 0] ------- [1:42 -1:42 10 0] 
s 1.120000000 _2_ AGT  --- 86 message 209 [0 0 0 0] ------- [2:42 -1:42 10 0] 
s 1.139697163 _1_ MAC  --- 85 message 209 [0 1000000 ffff0008 0] ------- [1:42 -1:42 10 0] 
r 1.139906183 _0_ MAC  --- 85 message 209 [0 1000000 ffff0008 0] ------- [1:42 -1:42 10 0] 
r 1.139906183 _2_ MAC  --- 85 message 209 [0 1000000 ffff0008 0] ------- [1:42 -1:42 10 0] 
r 1.139906183 _0_ AGT  --- 85 message 209 [0 1000000 ffff0008 0] ------- [1:42 -1:42 10 0] 
r 1.139906183 _2_ AGT  --- 85 message 209 [0 1000000 ffff0008 0] ------- [1:42 -1:42 10 0] 
s 1.139906183 _2_ AGT  --- 85 message 209 [0 1000000 ffff0008 0] ------- [1:42 -1:42 9 0] 
s 1.140056163 _1_ MAC  --- 83 message 209 [0 1000000 ffff0008 0] ------- [2:42 -1:42 9 0] 
r 1.140265183 _0_ MAC  --- 83 message 209 [0 1000000 ffff0008 0] ------- [2:42 -1:42 9 0] 
r 1.140265183 _2_ MAC  --- 83 message 209 [0 1000000 ffff0008 0] ------- [2:42 -1:42 9 0] 
r 1.140265183 _0_ AGT  --- 83 message 209 [0 1000000 ffff0008 0] ------- [2:42 -1:42 9 0] 
r 1.140265183 _2_ AGT  --- 83 message 209 [0 1000000 ffff0008 0] ------- [2:42 -1:42 9 0] 
s 1.141153820 _2_ MAC  --- 86 message 209 [0 2000000 ffff0008 0] ------- [2:42 -1:42 10 0] 
r 1.141362840 _1_ MAC  --- 86 message 209 [0 2000000 ffff0008 0] ------- [2:42 -1:42 10 0] 
r 1.141362840 _1_ AGT  --- 86 message 209 [0 2000000 ffff0008 0] ------- [2:42 -1:42 10 0] 
s 1.141362840 _1_ AGT  --- 86 message 209 [0 2000000 ffff0008 0] ------- [2:42 -1:42 9 0] 
s 1.141512820 _2_ MAC  --- 85 message 209 [0 2000000 ffff0008 0] ------- [1:42 -1:42 9 0] 