s 0.000000000 _1_ AGT  --- 1 message 209 [0 0 0 0] ------- [1:42 -1:42 10 0] 
s 0.000000000 _2_ AGT  --- 2 message 209 [0 0 0 0] ------- [2:42 -1:42 10 0] 
s 0.000000000 _1_ AGT  --- -1 message 209 [0 0 0 0] ------- [1:42 -1:42 10 0] 
s 0.000000000 _2_ AGT  --- -1 message 209 [0 0 0 0] ------- [2:42 -1:42 10 0] 
s 0.000791345 _2_ MAC  --- 2 message 209 [0 2000000 ffff0008 0] ------- [2:42 -1:42 10 0] 
r 0.001000365 _1_ MAC  --- 2 message 209 [0 2000000 ffff0008 0] ------- [2:42 -1:42 10 0] 
r 0.001000365 _1_ AGT  --- 2 message 209 [0 2000000 ffff0008 0] ------- [2:42 -1:42 10 0] 
s 0.007222159 _1_ MAC  --- 1 message 209 [0 1000000 ffff0008 0] ------- [1:42 -1:42 10 0] 
r 0.007431179 _0_ MAC  --- 1 message 209 [0 1000000 ffff0008 0] ------- [1:42 -1:42 10 0] 
r 0.007431179 _2_ MAC  --- 1 message 209 [0 1000000 ffff0008 0] ------- [1:42 -1:42 10 0] 
r 0.007431179 _0_ AGT  --- 1 message 209 [0 1000000 ffff0008 0] ------- [1:42 -1:42 10 0] 
r 0.007431179 _2_ AGT  --- 1 message 209 [0 1000000 ffff0008 0] ------- [1:42 -1:42 10 0] 
s 0.007431179 _2_ AGT  --- 1 message 209 [0 1000000 ffff0008 0] ------- [1:42 -1:42 9 0] 
s 0.029530948 _2_ MAC  --- 1 message 209 [0 2000000 ffff0008 0] ------- [1:42 -1:42 9 0] 
r 0.029739968 _1_ MAC  --- 1 message 209 [0 2000000 ffff0008 0] ------- [1:42 -1:42 9 0] 
r 0.029739968 _1_ AGT  --- 1 message 209 [0 2000000 ffff0008 0] ------- [1:42 -1:42 9 0] 
s 0.040000000 _1_ AGT  --- 4 message 209 [0 0 0 0] ------- [1:42 -1:42 10 0] 
s 0.040000000 _2_ AGT  --- 5 message 209 [0 0 0 0] ------- [2:42 -1:42 10 0] 
s 0.053434517 _1_ MAC  --- 4 message 209 [0 1000000 ffff0008 0] ------- [1:42 -1:42 10 0] 
r 0.053643537 _0_ MAC  --- 4 message 209 [0 1000000 ffff0008 0] ------- [1:42 -1:42 10 0] 
r 0.053643537 _2_ MAC  --- 4 message 209 [0 1000000 ffff0008 0] ------- [1:42 -1:42 10 0] 
r 0.053643537 _0_ AGT  --- 4 message 209 [0 1000000 ffff0008 0] ------- [1:42 -1:42 10 0] 
r 0.053643537 _2_ AGT  --- 4 message 209 [0 1000000 ffff0008 0] ------- [1:42 -1:42 10 0] 
s 0.053643537 _2_ AGT  --- 4 message 209 [0 1000000 ffff0008 0] ------- [1:42 -1:42 9 0] 
s 0.059539690 _2_ MAC  --- 5 message 209 [0 2000000 ffff0008 0] ------- [2:42 -1:42 10 0] 
s 0.059748690 _2_ MAC  --- 4 message 209 [0 2000000 ffff0008 0] ------- [1:42 -1:42 9 0] 
r 0.059748710 _1_ MAC  --- 5 message 209 [0 2000000 ffff0008 0] ------- [2:42 -1:42 10 0] 
r 0.059748710 _1_ AGT  --- 5 message 209 [0 2000000 ffff0008 0] ------- [2:42 -1:42 10 0] 
s 0.080000000 _1_ AGT  --- 7 message 209 [0 0 0 0] ------- [1:42 -1:42 10 0] 
s 0.080000000 _2_ AGT  --- 8 message 209 [0 0 0 0] ------- [2:42 -1:42 10 0] 
s 0.081469199 _2_ MAC  --- 8 message 209 [0 2000000 ffff0008 0] ------- [2:42 -1:42 10 0] 
r 0.081678219 _1_ MAC  --- 8 message 209 [0 2000000 ffff0008 0] ------- [2:42 -1:42 10 0] 
r 0.081678219 _1_ AGT  --- 8 message 209 [0 2000000 ffff0008 0] ------- [2:42 -1:42 10 0] 
s 0.102651826 _1_ MAC  --- 7 message 209 [0 1000000 ffff0008 0] ------- [1:42 -1:42 10 0] 
r 0.102860846 _0_ MAC  --- 7 message 209 [0 1000000 ffff0008 0] ------- [1:42 -1:42 10 0] 
r 0.102860846 _2_ MAC  --- 7 message 209 [0 1000000 ffff0008 0] ------- [1:42 -1:42 10 0] 
r 0.102860846 _0_ AGT  --- 7 message 209 [0 1000000 ffff0008 0] ------- [1:42 -1:42 10 0] 
r 0.102860846 _2_ AGT  --- 7 message 209 [0 1000000 ffff0008 0] ------- [1:42 -1:42 10 0] 
s 0.102860846 _2_ AGT  --- 7 message 209 [0 1000000 ffff0008 0] ------- [1:42 -1:42 9 0] 
s 0.109072240 _2_ MAC  --- 7 message 209 [0 2000000 ffff0008 0] ------- [1:42 -1:42 9 0] 
r 0.109281260 _1_ MAC  --- 7 message 209 [0 2000000 ffff0008 0] ------- [1:42 -1:42 9 0] 
r 0.109281260 _1_ AGT  --- 7 message 209 [0 2000000 ffff0008 0] ------- [1:42 -1:42 9 0] 
s 0.120000000 _1_ AGT  --- 10 message 209 [0 0 0 0] ------- [1:42 -1:42 10 0] 
s 0.120000000 _2_ AGT  --- 11 message 209 [0 0 0 0] ------- [2:42 -1:42 10 0] 
s 0.129493523 _1_ MAC  --- 10 message 209 [0 1000000 ffff0008 0] ------- [1:42 -1:42 10 0] 
r 0.129702543 _0_ MAC  --- 10 message 209 [0 1000000 ffff0008 0] ------- [1:42 -1:42 10 0] 
r 0.129702543 _2_ MAC  --- 10 message 209 [0 1000000 ffff0008 0] ------- [1:42 -1:42 10 0] 
r 0.129702543 _0_ AGT  --- 10 message 209 [0 1000000 ffff0008 0] ------- [1:42 -1:42 10 0] 
r 0.129702543 _2_ AGT  --- 10 message 209 [0 1000000 ffff0008 0] ------- [1:42 -1:42 10 0] 
s 0.129702543 _2_ AGT  --- 10 message 209 [0 1000000 ffff0008 0] ------- [1:42 -1:42 9 0] 
s 0.131211708 _2_ MAC  --- 11 message 209 [0 2000000 ffff0008 0] ------- [2:42 -1:42 10 0] 
s 0.131420708 _2_ MAC  --- 10 message 209 [0 2000000 ffff0008 0] ------- [1:42 -1:42 9 0] 
r 0.131420728 _1_ MAC  --- 11 message 209 [0 2000000 ffff0008 0] ------- [2:42 -1:42 10 0] 
r 0.131420728 _1_ AGT  --- 11 message 209 [0 2000000 ffff0008 0] ------- [2:42 -1:42 10 0] 
s 0.160000000 _1_ AGT  --- 13 message 209 [0 0 0 0] ------- [1:42 -1:42 10 0] 
s 0.160000000 _2_ AGT  --- 14 message 209 [0 0 0 0] ------- [2:42 -1:42 10 0] 
s 0.180992967 _1_ MAC  --- 13 message 209 [0 1000000 ffff0008 0] ------- [1:42 -1:42 10 0] 
r 0.181201987 _0_ MAC  --- 13 message 209 [0 1000000 ffff0008 0] ------- [1:42 -1:42 10 0] 
r 0.181201987 _2_ MAC  --- 13 message 209 [0 1000000 ffff0008 0] ------- [1:42 -1:42 10 0] 
r 0.181201987 _0_ AGT  --- 13 message 209 [0 1000000 ffff0008 0] ------- [1:42 -1:42 10 0] 
r 0.181201987 _2_ AGT  --- 13 message 209 [0 1000000 ffff0008 0] ------- [1:42 -1:42 10 0] 
s 0.181201987 _2_ AGT  --- 13 message 209 [0 1000000 ffff0008 0] ------- [1:42 -1:42 9 0] 
s 0.183730196 _2_ MAC  --- 14 message 209 [0 2000000 ffff0008 0] ------- [2:42 -1:42 10 0] 
s 0.183939196 _2_ MAC  --- 13 message 209 [0 2000000 ffff0008 0] ------- [1:42 -1:42 9 0] 
r 0.183939216 _1_ MAC  --- 14 message 209 [0 2000000 ffff0008 0] ------- [2:42 -1:42 10 0] 
r 0.183939216 _1_ AGT  --- 14 message 209 [0 2000000 ffff0008 0] ------- [2:42 -1:42 10 0] 
s 0.200000000 _1_ AGT  --- 16 message 209 [0 0 0 0] ------- [1:42 -1:42 10 0] 
s 0.200000000 _2_ AGT  --- 17 message 209 [0 0 0 0] ------- [2:42 -1:42 10 0] 
s 0.204343567 _1_ MAC  --- 16 message 209 [0 1000000 ffff0008 0] ------- [1:42 -1:42 10 0] 
r 0.204552587 _0_ MAC  --- 16 message 209 [0 1000000 ffff0008 0] ------- [1:42 -1:42 10 0] 
r 0.204552587 _2_ MAC  --- 16 message 209 [0 1000000 ffff0008 0] ------- [1:42 -1:42 10 0] 
r 0.204552587 _0_ AGT  --- 16 message 209 [0 1000000 ffff0008 0] ------- [1:42 -1:42 10 0] 
r 0.204552587 _2_ AGT  --- 16 message 209 [0 1000000 ffff0008 0] ------- [1:42 -1:42 10 0] 
s 0.204552587 _2_ AGT  --- 16 message 209 [0 1000000 ffff0008 0] ------- [1:42 -1:42 9 0] 
s 0.208081141 _2_ MAC  --- 17 message 209 [0 2000000 ffff0008 0] ------- [2:42 -1:42 10 0] 
s 0.208290141 _2_ MAC  --- 16 message 209 [0 2000000 ffff0008 0] ------- [1:42 -1:42 9 0] 
r 0.208290161 _1_ MAC  --- 17 message 209 [0 2000000 ffff0008 0] ------- [2:42 -1:42 10 0] 
r 0.208290161 _1_ AGT  --- 17 message 209 [0 2000000 ffff0008 0] ------- [2:42 -1:42 10 0] 
s 0.240000000 _1_ AGT  --- 19 message 209 [0 0 0 0] ------- [1:42 -1:42 10 0] 
s 0.240000000 _2_ AGT  --- 20 message 209 [0 0 0 0] ------- [2:42 -1:42 10 0] 
s 0.250325355 _1_ MAC  --- 19 message 209 [0 1000000 ffff0008 0] ------- [1:42 -1:42 10 0] 
r 0.250534375 _0_ MAC  --- 19 message 209 [0 1000000 ffff0008 0] ------- [1:42 -1:42 10 0] 
r 0.250534375 _2_ MAC  --- 19 message 209 [0 1000000 ffff0008 0] ------- [1:42 -1:42 10 0] 
r 0.250534375 _0_ AGT  --- 19 message 209 [0 1000000 ffff0008 0] ------- [1:42 -1:42 10 0] 
r 0.250534375 _2_ AGT  --- 19 message 209 [0 1000000 ffff0008 0] ------- [1:42 -1:42 10 0] 
s 0.250534375 _2_ AGT  --- 19 message 209 [0 1000000 ffff0008 0] ------- [1:42 -1:42 9 0] 
s 0.260696257 _2_ MAC  --- 20 message 209 [0 2000000 ffff0008 0] ------- [2:42 -1:42 10 0] 
s 0.260905257 _2_ MAC  --- 19 message 209 [0 2000000 ffff0008 0] ------- [1:42 -1:42 9 0] 
r 0.260905277 _1_ MAC  --- 20 message 209 [0 2000000 ffff0008 0] ------- [2:42 -1:42 10 0] 
r 0.260905277 _1_ AGT  --- 20 message 209 [0 2000000 ffff0008 0] ------- [2:42 -1:42 10 0] 
s 0.280000000 _1_ AGT  --- 22 message 209 [0 0 0 0] ------- [1:42 -1:42 10 0] 
s 0.280000000 _2_ AGT  --- 23 message 209 [0 0 0 0] ------- [2:42 -1:42 10 0] 
s 0.282068358 _2_ MAC  --- 23 message 209 [0 2000000 ffff0008 0] ------- [2:42 -1:42 10 0] 
r 0.282277378 _1_ MAC  --- 23 message 209 [0 2000000 ffff0008 0] ------- [2:42 -1:42 10 0] 
r 0.282277378 _1_ AGT  --- 23 message 209 [0 2000000 ffff0008 0] ------- [2:42 -1:42 10 0] 
s 0.303248301 _1_ MAC  --- 22 message 209 [0 1000000 ffff0008 0] ------- [1:42 -1:42 10 0] 
r 0.303457321 _0_ MAC  --- 22 message 209 [0 1000000 ffff0008 0] ------- [1:42 -1:42 10 0] 
r 0.303457321 _2_ MAC  --- 22 message 209 [0 1000000 ffff0008 0] ------- [1:42 -1:42 10 0] 
r 0.303457321 _0_ AGT  --- 22 message 209 [0 1000000 ffff0008 0] ------- [1:42 -1:42 10 0] 
r 0.303457321 _2_ AGT  --- 22 message 209 [0 1000000 ffff0008 0] ------- [1:42 -1:42 10 0] 
s 0.303457321 _2_ AGT  --- 22 message 209 [0 1000000 ffff0008 0] ------- [1:42 -1:42 9 0] 
s 0.310625499 _2_ MAC  --- 22 message 209 [0 2000000 ffff0008 0] ------- [1:42 -1:42 9 0] 
r 0.310834519 _1_ MAC  --- 22 message 209 [0 2000000 ffff0008 0] ------- [1:42 -1:42 9 0] 
r 0.310834519 _1_ AGT  --- 22 message 209 [0 2000000 ffff0008 0] ------- [1:42 -1:42 9 0] 
s 0.320000000 _1_ AGT  --- 25 message 209 [0 0 0 0] ------- [1:42 -1:42 10 0] 
s 0.320000000 _2_ AGT  --- 26 message 209 [0 0 0 0] ------- [2:42 -1:42 10 0] 
s 0.327321953 _1_ MAC  --- 25 message 209 [0 1000000 ffff0008 0] ------- [1:42 -1:42 10 0] 
r 0.327530973 _0_ MAC  --- 25 message 209 [0 1000000 ffff0008 0] ------- [1:42 -1:42 10 0] 
r 0.327530973 _2_ MAC  --- 25 message 209 [0 1000000 ffff0008 0] ------- [1:42 -1:42 10 0] 
r 0.327530973 _0_ AGT  --- 25 message 209 [0 1000000 ffff0008 0] ------- [1:42 -1:42 10 0] 
r 0.327530973 _2_ AGT  --- 25 message 209 [0 1000000 ffff0008 0] ------- [1:42 -1:42 10 0] 
s 0.327530973 _2_ AGT  --- 25 message 209 [0 1000000 ffff0008 0] ------- [1:42 -1:42 9 0] 
s 0.338327861 _2_ MAC  --- 26 message 209 [0 2000000 ffff0008 0] ------- [2:42 -1:42 10 0] 
s 0.338536861 _2_ MAC  --- 25 message 209 [0 2000000 ffff0008 0] ------- [1:42 -1:42 9 0] 
r 0.338536881 _1_ MAC  --- 26 message 209 [0 2000000 ffff0008 0] ------- [2:42 -1:42 10 0] 
r 0.338536881 _1_ AGT  --- 26 message 209 [0 2000000 ffff0008 0] ------- [2:42 -1:42 10 0] 
s 0.360000000 _1_ AGT  --- 28 message 209 [0 0 0 0] ------- [1:42 -1:42 10 0] 
s 0.360000000 _2_ AGT  --- 29 message 209 [0 0 0 0] ------- [2:42 -1:42 10 0] 
s 0.365103890 _2_ MAC  --- 29 message 209 [0 2000000 ffff0008 0] ------- [2:42 -1:42 10 0] 
r 0.365312910 _1_ MAC  --- 29 message 209 [0 2000000 ffff0008 0] ------- [2:42 -1:42 10 0] 
r 0.365312910 _1_ AGT  --- 29 message 209 [0 2000000 ffff0008 0] ------- [2:42 -1:42 10 0] 
s 0.376336587 _1_ MAC  --- 28 message 209 [0 1000000 ffff0008 0] ------- [1:42 -1:42 10 0] 
r 0.376545607 _0_ MAC  --- 28 message 209 [0 1000000 ffff0008 0] ------- [1:42 -1:42 10 0] 
r 0.376545607 _2_ MAC  --- 28 message 209 [0 1000000 ffff0008 0] ------- [1:42 -1:42 10 0] 
r 0.376545607 _0_ AGT  --- 28 message 209 [0 1000000 ffff0008 0] ------- [1:42 -1:42 10 0] 
r 0.376545607 _2_ AGT  --- 28 message 209 [0 1000000 ffff0008 0] ------- [1:42 -1:42 10 0] 
s 0.376545607 _2_ AGT  --- 28 message 209 [0 1000000 ffff0008 0] ------- [1:42 -1:42 9 0] 
s 0.391174882 _2_ MAC  --- 28 message 209 [0 2000000 ffff0008 0] ------- [1:42 -1:42 9 0] 
r 0.391383902 _1_ MAC  --- 28 message 209 [0 2000000 ffff0008 0] ------- [1:42 -1:42 9 0] 
r 0.391383902 _1_ AGT  --- 28 message 209 [0 2000000 ffff0008 0] ------- [1:42 -1:42 9 0] 
s 0.400000000 _1_ AGT  --- 31 message 209 [0 0 0 0] ------- [1:42 -1:42 10 0] 
s 0.400000000 _2_ AGT  --- 32 message 209 [0 0 0 0] ------- [2:42 -1:42 10 0] 
s 0.401897902 _1_ MAC  --- 31 message 209 [0 1000000 ffff0008 0] ------- [1:42 -1:42 10 0] 
r 0.402106922 _0_ MAC  --- 31 message 209 [0 1000000 ffff0008 0] ------- [1:42 -1:42 10 0] 
r 0.402106922 _2_ MAC  --- 31 message 209 [0 1000000 ffff0008 0] ------- [1:42 -1:42 10 0] 
r 0.402106922 _0_ AGT  --- 31 message 209 [0 1000000 ffff0008 0] ------- [1:42 -1:42 10 0] 
r 0.402106922 _2_ AGT  --- 31 message 209 [0 1000000 ffff0008 0] ------- [1:42 -1:42 10 0] 
s 0.402106922 _2_ AGT  --- 31 message 209 [0 1000000 ffff0008 0] ------- [1:42 -1:42 9 0] 
s 0.413954897 _2_ MAC  --- 32 message 209 [0 2000000 ffff0008 0] ------- [2:42 -1:42 10 0] 
s 0.414163897 _2_ MAC  --- 31 message 209 [0 2000000 ffff0008 0] ------- [1:42 -1:42 9 0] 
r 0.414163917 _1_ MAC  --- 32 message 209 [0 2000000 ffff0008 0] ------- [2:42 -1:42 10 0] 
r 0.414163917 _1_ AGT  --- 32 message 209 [0 2000000 ffff0008 0] ------- [2:42 -1:42 10 0] 
s 0.440000000 _1_ AGT  --- 34 message 209 [0 0 0 0] ------- [1:42 -1:42 10 0] 
s 0.440000000 _2_ AGT  --- 35 message 209 [0 0 0 0] ------- [2:42 -1:42 10 0] 
s 0.450220475 _1_ MAC  --- 34 message 209 [0 1000000 ffff0008 0] ------- [1:42 -1:42 10 0] 
r 0.450429495 _0_ MAC  --- 34 message 209 [0 1000000 ffff0008 0] ------- [1:42 -1:42 10 0] 
r 0.450429495 _2_ MAC  --- 34 message 209 [0 1000000 ffff0008 0] ------- [1:42 -1:42 10 0] 
r 0.450429495 _0_ AGT  --- 34 message 209 [0 1000000 ffff0008 0] ------- [1:42 -1:42 10 0] 
r 0.450429495 _2_ AGT  --- 34 message 209 [0 1000000 ffff0008 0] ------- [1:42 -1:42 10 0] 
s 0.450429495 _2_ AGT  --- 34 message 209 [0 1000000 ffff0008 0] ------- [1:42 -1:42 9 0] 
s 0.463227769 _2_ MAC  --- 35 message 209 [0 2000000 ffff0008 0] ------- [2:42 -1:42 10 0] 
s 0.463436769 _2_ MAC  --- 34 message 209 [0 2000000 ffff0008 0] ------- [1:42 -1:42 9 0] 
r 0.463436789 _1_ MAC  --- 35 message 209 [0 2000000 ffff0008 0] ------- [2:42 -1:42 10 0] 
r 0.463436789 _1_ AGT  --- 35 message 209 [0 2000000 ffff0008 0] ------- [2:42 -1:42 10 0] 
s 0.480000000 _1_ AGT  --- 37 message 209 [0 0 0 0] ------- [1:42 -1:42 10 0] 
s 0.480000000 _2_ AGT  --- 38 message 209 [0 0 0 0] ------- [2:42 -1:42 10 0] 
s 0.489473248 _2_ MAC  --- 38 message 209 [0 2000000 ffff0008 0] ------- [2:42 -1:42 10 0] 
r 0.489682268 _1_ MAC  --- 38 message 209 [0 2000000 ffff0008 0] ------- [2:42 -1:42 10 0] 
r 0.489682268 _1_ AGT  --- 38 message 209 [0 2000000 ffff0008 0] ------- [2:42 -1:42 10 0] 
s 0.497861803 _1_ MAC  --- 37 message 209 [0 1000000 ffff0008 0] ------- [1:42 -1:42 10 0] 
r 0.498070823 _0_ MAC  --- 37 message 209 [0 1000000 ffff0008 0] ------- [1:42 -1:42 10 0] 
r 0.498070823 _2_ MAC  --- 37 message 209 [0 1000000 ffff0008 0] ------- [1:42 -1:42 10 0] 
r 0.498070823 _0_ AGT  --- 37 message 209 [0 1000000 ffff0008 0] ------- [1:42 -1:42 10 0] 
r 0.498070823 _2_ AGT  --- 37 message 209 [0 1000000 ffff0008 0] ------- [1:42 -1:42 10 0] 
s 0.498070823 _2_ AGT  --- 37 message 209 [0 1000000 ffff0008 0] ------- [1:42 -1:42 9 0] 
s 0.513857869 _2_ MAC  --- 37 message 209 [0 2000000 ffff0008 0] ------- [1:42 -1:42 9 0] 
r 0.514066889 _1_ MAC  --- 37 message 209 [0 2000000 ffff0008 0] ------- [1:42 -1:42 9 0] 
r 0.514066889 _1_ AGT  --- 37 message 209 [0 2000000 ffff0008 0] ------- [1:42 -1:42 9 0] 
s 0.520000000 _1_ AGT  --- 40 message 209 [0 0 0 0] ------- [1:42 -1:42 10 0] 
s 0.520000000 _2_ AGT  --- 41 message 209 [0 0 0 0] ------- [2:42 -1:42 10 0] 
s 0.521513327 _1_ MAC  --- 40 message 209 [0 1000000 ffff0008 0] ------- [1:42 -1:42 10 0] 
r 0.521722347 _0_ MAC  --- 40 message 209 [0 1000000 ffff0008 0] ------- [1:42 -1:42 10 0] 
r 0.521722347 _2_ MAC  --- 40 message 209 [0 1000000 ffff0008 0] ------- [1:42 -1:42 10 0] 
r 0.521722347 _0_ AGT  --- 40 message 209 [0 1000000 ffff0008 0] ------- [1:42 -1:42 10 0] 
r 0.521722347 _2_ AGT  --- 40 message 209 [0 1000000 ffff0008 0] ------- [1:42 -1:42 10 0] 
s 0.521722347 _2_ AGT  --- 40 message 209 [0 1000000 ffff0008 0] ------- [1:42 -1:42 9 0] 
s 0.539682075 _2_ MAC  --- 41 message 209 [0 2000000 ffff0008 0] ------- [2:42 -1:42 10 0] 
s 0.539891075 _2_ MAC  --- 40 message 209 [0 2000000 ffff0008 0] ------- [1:42 -1:42 9 0] 
r 0.539891095 _1_ MAC  --- 41 message 209 [0 2000000 ffff0008 0] ------- [2:42 -1:42 10 0] 
r 0.539891095 _1_ AGT  --- 41 message 209 [0 2000000 ffff0008 0] ------- [2:42 -1:42 10 0] 
s 0.560000000 _1_ AGT  --- 43 message 209 [0 0 0 0] ------- [1:42 -1:42 10 0] 
s 0.560000000 _2_ AGT  --- 44 message 209 [0 0 0 0] ------- [2:42 -1:42 10 0] 
s 0.569084004 _2_ MAC  --- 44 message 209 [0 2000000 ffff0008 0] ------- [2:42 -1:42 10 0] 
r 0.569293024 _1_ MAC  --- 44 message 209 [0 2000000 ffff0008 0] ------- [2:42 -1:42 10 0] 
r 0.569293024 _1_ AGT  --- 44 message 209 [0 2000000 ffff0008 0] ------- [2:42 -1:42 10 0] 
s 0.571904752 _1_ MAC  --- 43 message 209 [0 1000000 ffff0008 0] ------- [1:42 -1:42 10 0] 
r 0.572113772 _0_ MAC  --- 43 message 209 [0 1000000 ffff0008 0] ------- [1:42 -1:42 10 0] 
r 0.572113772 _2_ MAC  --- 43 message 209 [0 1000000 ffff0008 0] ------- [1:42 -1:42 10 0] 
r 0.572113772 _0_ AGT  --- 43 message 209 [0 1000000 ffff0008 0] ------- [1:42 -1:42 10 0] 
r 0.572113772 _2_ AGT  --- 43 message 209 [0 1000000 ffff0008 0] ------- [1:42 -1:42 10 0] 
s 0.572113772 _2_ AGT  --- 43 message 209 [0 1000000 ffff0008 0] ------- [1:42 -1:42 9 0] 
s 0.594138926 _2_ MAC  --- 43 message 209 [0 2000000 ffff0008 0] ------- [1:42 -1:42 9 0] 
r 0.594347946 _1_ MAC  --- 43 message 209 [0 2000000 ffff0008 0] ------- [1:42 -1:42 9 0] 
r 0.594347946 _1_ AGT  --- 43 message 209 [0 2000000 ffff0008 0] ------- [1:42 -1:42 9 0] 
s 0.600000000 _1_ AGT  --- 46 message 209 [0 0 0 0] ------- [1:42 -1:42 10 0] 
s 0.600000000 _2_ AGT  --- 47 message 209 [0 0 0 0] ------- [2:42 -1:42 10 0] 
s 0.600996432 _1_ MAC  --- 46 message 209 [0 1000000 ffff0008 0] ------- [1:42 -1:42 10 0] 
r 0.601205452 _0_ MAC  --- 46 message 209 [0 1000000 ffff0008 0] ------- [1:42 -1:42 10 0] 
r 0.601205452 _2_ MAC  --- 46 message 209 [0 1000000 ffff0008 0] ------- [1:42 -1:42 10 0] 
r 0.601205452 _0_ AGT  --- 46 message 209 [0 1000000 ffff0008 0] ------- [1:42 -1:42 10 0] 
r 0.601205452 _2_ AGT  --- 46 message 209 [0 1000000 ffff0008 0] ------- [1:42 -1:42 10 0] 
s 0.601205452 _2_ AGT  --- 46 message 209 [0 1000000 ffff0008 0] ------- [1:42 -1:42 9 0] 
s 0.623113536 _2_ MAC  --- 47 message 209 [0 2000000 ffff0008 0] ------- [2:42 -1:42 10 0] 
s 0.623322536 _2_ MAC  --- 46 message 209 [0 2000000 ffff0008 0] ------- [1:42 -1:42 9 0] 
r 0.623322556 _1_ MAC  --- 47 message 209 [0 2000000 ffff0008 0] ------- [2:42 -1:42 10 0] 
r 0.623322556 _1_ AGT  --- 47 message 209 [0 2000000 ffff0008 0] ------- [2:42 -1:42 10 0] 
s 0.640000000 _1_ AGT  --- 49 message 209 [0 0 0 0] ------- [1:42 -1:42 10 0] 
s 0.640000000 _2_ AGT  --- 50 message 209 [0 0 0 0] ------- [2:42 -1:42 10 0] 
s 0.651243156 _2_ MAC  --- 50 message 209 [0 2000000 ffff0008 0] ------- [2:42 -1:42 10 0] 
r 0.651452176 _1_ MAC  --- 50 message 209 [0 2000000 ffff0008 0] ------- [2:42 -1:42 10 0] 
r 0.651452176 _1_ AGT  --- 50 message 209 [0 2000000 ffff0008 0] ------- [2:42 -1:42 10 0] 
s 0.655271321 _1_ MAC  --- 49 message 209 [0 1000000 ffff0008 0] ------- [1:42 -1:42 10 0] 
r 0.655480341 _0_ MAC  --- 49 message 209 [0 1000000 ffff0008 0] ------- [1:42 -1:42 10 0] 
r 0.655480341 _2_ MAC  --- 49 message 209 [0 1000000 ffff0008 0] ------- [1:42 -1:42 10 0] 
r 0.655480341 _0_ AGT  --- 49 message 209 [0 1000000 ffff0008 0] ------- [1:42 -1:42 10 0] 
r 0.655480341 _2_ AGT  --- 49 message 209 [0 1000000 ffff0008 0] ------- [1:42 -1:42 10 0] 
s 0.655480341 _2_ AGT  --- 49 message 209 [0 1000000 ffff0008 0] ------- [1:42 -1:42 9 0] 
s 0.676456030 _2_ MAC  --- 49 message 209 [0 2000000 ffff0008 0] ------- [1:42 -1:42 9 0] 
r 0.676665050 _1_ MAC  --- 49 message 209 [0 2000000 ffff0008 0] ------- [1:42 -1:42 9 0] 
r 0.676665050 _1_ AGT  --- 49 message 209 [0 2000000 ffff0008 0] ------- [1:42 -1:42 9 0] 
s 0.680000000 _1_ AGT  --- 52 message 209 [0 0 0 0] ------- [1:42 -1:42 10 0] 
s 0.680000000 _2_ AGT  --- 53 message 209 [0 0 0 0] ------- [2:42 -1:42 10 0] 
s 0.685375246 _1_ MAC  --- 52 message 209 [0 1000000 ffff0008 0] ------- [1:42 -1:42 10 0] 
r 0.685584266 _0_ MAC  --- 52 message 209 [0 1000000 ffff0008 0] ------- [1:42 -1:42 10 0] 
r 0.685584266 _2_ MAC  --- 52 message 209 [0 1000000 ffff0008 0] ------- [1:42 -1:42 10 0] 
r 0.685584266 _0_ AGT  --- 52 message 209 [0 1000000 ffff0008 0] ------- [1:42 -1:42 10 0] 
r 0.685584266 _2_ AGT  --- 52 message 209 [0 1000000 ffff0008 0] ------- [1:42 -1:42 10 0] 
s 0.685584266 _2_ AGT  --- 52 message 209 [0 1000000 ffff0008 0] ------- [1:42 -1:42 9 0] 
s 0.703895979 _2_ MAC  --- 53 message 209 [0 2000000 ffff0008 0] ------- [2:42 -1:42 10 0] 
s 0.704104979 _2_ MAC  --- 52 message 209 [0 2000000 ffff0008 0] ------- [1:42 -1:42 9 0] 
r 0.704104999 _1_ MAC  --- 53 message 209 [0 2000000 ffff0008 0] ------- [2:42 -1:42 10 0] 
r 0.704104999 _1_ AGT  --- 53 message 209 [0 2000000 ffff0008 0] ------- [2:42 -1:42 10 0] 
s 0.720000000 _1_ AGT  --- 55 message 209 [0 0 0 0] ------- [1:42 -1:42 10 0] 
s 0.720000000 _2_ AGT  --- 56 message 209 [0 0 0 0] ------- [2:42 -1:42 10 0] 
s 0.724684168 _2_ MAC  --- 56 message 209 [0 2000000 ffff0008 0] ------- [2:42 -1:42 10 0] 
r 0.724893188 _1_ MAC  --- 56 message 209 [0 2000000 ffff0008 0] ------- [2:42 -1:42 10 0] 
r 0.724893188 _1_ AGT  --- 56 message 209 [0 2000000 ffff0008 0] ------- [2:42 -1:42 10 0] 
s 0.733235218 _1_ MAC  --- 55 message 209 [0 1000000 ffff0008 0] ------- [1:42 -1:42 10 0] 
r 0.733444238 _0_ MAC  --- 55 message 209 [0 1000000 ffff0008 0] ------- [1:42 -1:42 10 0] 
r 0.733444238 _2_ MAC  --- 55 message 209 [0 1000000 ffff0008 0] ------- [1:42 -1:42 10 0] 
r 0.733444238 _0_ AGT  --- 55 message 209 [0 1000000 ffff0008 0] ------- [1:42 -1:42 10 0] 
r 0.733444238 _2_ AGT  --- 55 message 209 [0 1000000 ffff0008 0] ------- [1:42 -1:42 10 0] 
s 0.733444238 _2_ AGT  --- 55 message 209 [0 1000000 ffff0008 0] ------- [1:42 -1:42 9 0] 
s 0.754317352 _2_ MAC  --- 55 message 209 [0 2000000 ffff0008 0] ------- [1:42 -1:42 9 0] 
r 0.754526372 _1_ MAC  --- 55 message 209 [0 2000000 ffff0008 0] ------- [1:42 -1:42 9 0] 
r 0.754526372 _1_ AGT  --- 55 message 209 [0 2000000 ffff0008 0] ------- [1:42 -1:42 9 0] 
s 0.760000000 _1_ AGT  --- 58 message 209 [0 0 0 0] ------- [1:42 -1:42 10 0] 
s 0.760000000 _2_ AGT  --- 59 message 209 [0 0 0 0] ------- [2:42 -1:42 10 0] 
s 0.761695199 _1_ MAC  --- 58 message 209 [0 1000000 ffff0008 0] ------- [1:42 -1:42 10 0] 
r 0.761904219 _0_ MAC  --- 58 message 209 [0 1000000 ffff0008 0] ------- [1:42 -1:42 10 0] 
r 0.761904219 _2_ MAC  --- 58 message 209 [0 1000000 ffff0008 0] ------- [1:42 -1:42 10 0] 
r 0.761904219 _0_ AGT  --- 58 message 209 [0 1000000 ffff0008 0] ------- [1:42 -1:42 10 0] 
r 0.761904219 _2_ AGT  --- 58 message 209 [0 1000000 ffff0008 0] ------- [1:42 -1:42 10 0] 
s 0.761904219 _2_ AGT  --- 58 message 209 [0 1000000 ffff0008 0] ------- [1:42 -1:42 9 0] 
s 0.776859488 _2_ MAC  --- 59 message 209 [0 2000000 ffff0008 0] ------- [2:42 -1:42 10 0] 
s 0.777068488 _2_ MAC  --- 58 message 209 [0 2000000 ffff0008 0] ------- [1:42 -1:42 9 0] 
r 0.777068508 _1_ MAC  --- 59 message 209 [0 2000000 ffff0008 0] ------- [2:42 -1:42 10 0] 
r 0.777068508 _1_ AGT  --- 59 message 209 [0 2000000 ffff0008 0] ------- [2:42 -1:42 10 0] 
s 0.800000000 _1_ AGT  --- 61 message 209 [0 0 0 0] ------- [1:42 -1:42 10 0] 
s 0.800000000 _2_ AGT  --- 62 message 209 [0 0 0 0] ------- [2:42 -1:42 10 0] 
s 0.803845700 _2_ MAC  --- 62 message 209 [0 2000000 ffff0008 0] ------- [2:42 -1:42 10 0] 
r 0.804054720 _1_ MAC  --- 62 message 209 [0 2000000 ffff0008 0] ------- [2:42 -1:42 10 0] 
r 0.804054720 _1_ AGT  --- 62 message 209 [0 2000000 ffff0008 0] ------- [2:42 -1:42 10 0] 
s 0.811621796 _1_ MAC  --- 61 message 209 [0 1000000 ffff0008 0] ------- [1:42 -1:42 10 0] 
r 0.811830816 _0_ MAC  --- 61 message 209 [0 1000000 ffff0008 0] ------- [1:42 -1:42 10 0] 
r 0.811830816 _2_ MAC  --- 61 message 209 [0 1000000 ffff0008 0] ------- [1:42 -1:42 10 0] 
r 0.811830816 _0_ AGT  --- 61 message 209 [0 1000000 ffff0008 0] ------- [1:42 -1:42 10 0] 
r 0.811830816 _2_ AGT  --- 61 message 209 [0 1000000 ffff0008 0] ------- [1:42 -1:42 10 0] 
s 0.811830816 _2_ AGT  --- 61 message 209 [0 1000000 ffff0008 0] ------- [1:42 -1:42 9 0] 
s 0.828576225 _2_ MAC  --- 61 message 209 [0 2000000 ffff0008 0] ------- [1:42 -1:42 9 0] 
r 0.828785245 _1_ MAC  --- 61 message 209 [0 2000000 ffff0008 0] ------- [1:42 -1:42 9 0] 
r 0.828785245 _1_ AGT  --- 61 message 209 [0 2000000 ffff0008 0] ------- [1:42 -1:42 9 0] 
s 0.840000000 _1_ AGT  --- 64 message 209 [0 0 0 0] ------- [1:42 -1:42 10 0] 
s 0.840000000 _2_ AGT  --- 65 message 209 [0 0 0 0] ------- [2:42 -1:42 10 0] 
s 0.856064707 _2_ MAC  --- 65 message 209 [0 2000000 ffff0008 0] ------- [2:42 -1:42 10 0] 
r 0.856273727 _1_ MAC  --- 65 message 209 [0 2000000 ffff0008 0] ------- [2:42 -1:42 10 0] 
r 0.856273727 _1_ AGT  --- 65 message 209 [0 2000000 ffff0008 0] ------- [2:42 -1:42 10 0] 
s 0.862094922 _1_ MAC  --- 64 message 209 [0 1000000 ffff0008 0] ------- [1:42 -1:42 10 0] 
r 0.862303942 _0_ MAC  --- 64 message 209 [0 1000000 ffff0008 0] ------- [1:42 -1:42 10 0] 
r 0.862303942 _2_ MAC  --- 64 message 209 [0 1000000 ffff0008 0] ------- [1:42 -1:42 10 0] 
r 0.862303942 _0_ AGT  --- 64 message 209 [0 1000000 ffff0008 0] ------- [1:42 -1:42 10 0] 
r 0.862303942 _2_ AGT  --- 64 message 209 [0 1000000 ffff0008 0] ------- [1:42 -1:42 10 0] 
s 0.862303942 _2_ AGT  --- 64 message 209 [0 1000000 ffff0008 0] ------- [1:42 -1:42 9 0] 
s 0.878557064 _2_ MAC  --- 64 message 209 [0 2000000 ffff0008 0] ------- [1:42 -1:42 9 0] 
r 0.878766084 _1_ MAC  --- 64 message 209 [0 2000000 ffff0008 0] ------- [1:42 -1:42 9 0] 
r 0.878766084 _1_ AGT  --- 64 message 209 [0 2000000 ffff0008 0] ------- [1:42 -1:42 9 0] 
s 0.880000000 _1_ AGT  --- 67 message 209 [0 0 0 0] ------- [1:42 -1:42 10 0] 
s 0.880000000 _2_ AGT  --- 68 message 209 [0 0 0 0] ------- [2:42 -1:42 10 0] 
s 0.889255981 _1_ MAC  --- 67 message 209 [0 1000000 ffff0008 0] ------- [1:42 -1:42 10 0] 
r 0.889465001 _0_ MAC  --- 67 message 209 [0 1000000 ffff0008 0] ------- [1:42 -1:42 10 0] 
r 0.889465001 _2_ MAC  --- 67 message 209 [0 1000000 ffff0008 0] ------- [1:42 -1:42 10 0] 
r 0.889465001 _0_ AGT  --- 67 message 209 [0 1000000 ffff0008 0] ------- [1:42 -1:42 10 0] 
r 0.889465001 _2_ AGT  --- 67 message 209 [0 1000000 ffff0008 0] ------- [1:42 -1:42 10 0] 
s 0.889465001 _2_ AGT  --- 67 message 209 [0 1000000 ffff0008 0] ------- [1:42 -1:42 9 0] 
s 0.905797591 _2_ MAC  --- 68 message 209 [0 2000000 ffff0008 0] ------- [2:42 -1:42 10 0] 
s 0.906006591 _2_ MAC  --- 67 message 209 [0 2000000 ffff0008 0] ------- [1:42 -1:42 9 0] 
r 0.906006611 _1_ MAC  --- 68 message 209 [0 2000000 ffff0008 0] ------- [2:42 -1:42 10 0] 
r 0.906006611 _1_ AGT  --- 68 message 209 [0 2000000 ffff0008 0] ------- [2:42 -1:42 10 0] 
s 0.920000000 _1_ AGT  --- 70 message 209 [0 0 0 0] ------- [1:42 -1:42 10 0] 
s 0.920000000 _2_ AGT  --- 71 message 209 [0 0 0 0] ------- [2:42 -1:42 10 0] 
s 0.933146596 _2_ MAC  --- 71 message 209 [0 2000000 ffff0008 0] ------- [2:42 -1:42 10 0] 
r 0.933355616 _1_ MAC  --- 71 message 209 [0 2000000 ffff0008 0] ------- [2:42 -1:42 10 0] 
r 0.933355616 _1_ AGT  --- 71 message 209 [0 2000000 ffff0008 0] ------- [2:42 -1:42 10 0] 
s 0.945187199 _1_ MAC  --- 70 message 209 [0 1000000 ffff0008 0] ------- [1:42 -1:42 10 0] 
r 0.945396219 _0_ MAC  --- 70 message 209 [0 1000000 ffff0008 0] ------- [1:42 -1:42 10 0] 
r 0.945396219 _2_ MAC  --- 70 message 209 [0 1000000 ffff0008 0] ------- [1:42 -1:42 10 0] 
r 0.945396219 _0_ AGT  --- 70 message 209 [0 1000000 ffff0008 0] ------- [1:42 -1:42 10 0] 
r 0.945396219 _2_ AGT  --- 70 message 209 [0 1000000 ffff0008 0] ------- [1:42 -1:42 10 0] 
s 0.945396219 _2_ AGT  --- 70 message 209 [0 1000000 ffff0008 0] ------- [1:42 -1:42 9 0] 
s 0.959710786 _2_ MAC  --- 70 message 209 [0 2000000 ffff0008 0] ------- [1:42 -1:42 9 0] 
r 0.959919806 _1_ MAC  --- 70 message 209 [0 2000000 ffff0008 0] ------- [1:42 -1:42 9 0] 
r 0.959919806 _1_ AGT  --- 70 message 209 [0 2000000 ffff0008 0] ------- [1:42 -1:42 9 0] 
s 0.960000000 _1_ AGT  --- 73 message 209 [0 0 0 0] ------- [1:42 -1:42 10 0] 
s 0.960000000 _2_ AGT  --- 74 message 209 [0 0 0 0] ------- [2:42 -1:42 10 0] 
s 0.969819763 _1_ MAC  --- 73 message 209 [0 1000000 ffff0008 0] ------- [1:42 -1:42 10 0] 
r 0.970028783 _0_ MAC  --- 73 message 209 [0 1000000 ffff0008 0] ------- [1:42 -1:42 10 0] 
r 0.970028783 _2_ MAC  --- 73 message 209 [0 1000000 ffff0008 0] ------- [1:42 -1:42 10 0] 
r 0.970028783 _0_ AGT  --- 73 message 209 [0 1000000 ffff0008 0] ------- [1:42 -1:42 10 0] 
r 0.970028783 _2_ AGT  --- 73 message 209 [0 1000000 ffff0008 0] ------- [1:42 -1:42 10 0] 
s 0.970028783 _2_ AGT  --- 73 message 209 [0 1000000 ffff0008 0] ------- [1:42 -1:42 9 0] 
s 0.984763529 _2_ MAC  --- 74 message 209 [0 2000000 ffff0008 0] ------- [2:42 -1:42 10 0] 
s 0.984972529 _2_ MAC  --- 73 message 209 [0 2000000 ffff0008 0] ------- [1:42 -1:42 9 0] 
r 0.984972549 _1_ MAC  --- 74 message 209 [0 2000000 ffff0008 0] ------- [2:42 -1:42 10 0] 
r 0.984972549 _1_ AGT  --- 74 message 209 [0 2000000 ffff0008 0] ------- [2:42 -1:42 10 0] 
s 1.000000000 _1_ AGT  --- 76 message 209 [0 0 0 0] ------- [1:42 -1:42 10 0] 
s 1.000000000 _2_ AGT  --- 77 message 209 [0 0 0 0] ------- [2:42 -1:42 10 0] 
s 1.009945630 _2_ MAC  --- 77 message 209 [0 2000000 ffff0008 0] ------- [2:42 -1:42 10 0] 
r 1.010154650 _1_ MAC  --- 77 message 209 [0 2000000 ffff0008 0] ------- [2:42 -1:42 10 0] 
r 1.010154650 _1_ AGT  --- 77 message 209 [0 2000000 ffff0008 0] ------- [2:42 -1:42 10 0] 
s 1.022279517 _1_ MAC  --- 76 message 209 [0 1000000 ffff0008 0] ------- [1:42 -1:42 10 0] 
r 1.022488537 _0_ MAC  --- 76 message 209 [0 1000000 ffff0008 0] ------- [1:42 -1:42 10 0] 
r 1.022488537 _2_ MAC  --- 76 message 209 [0 1000000 ffff0008 0] ------- [1:42 -1:42 10 0] 
r 1.022488537 _0_ AGT  --- 76 message 209 [0 1000000 ffff0008 0] ------- [1:42 -1:42 10 0] 
r 1.022488537 _2_ AGT  --- 76 message 209 [0 1000000 ffff0008 0] ------- [1:42 -1:42 10 0] 