s 0.000396000 _0_ AGT  --- 2 message 46 [0 0 0 0] ------- [0:42 -1:42 10 0] 
s 0.000396000 _0_ MAC  --- 2 message 46 [0 0 ffff0008 0] ------- [0:42 -1:42 10 0] 
r 0.000764017 _5_ MAC  --- 2 message 46 [0 0 ffff0008 0] ------- [0:42 -1:42 10 0] 
r 0.000764017 _1_ MAC  --- 2 message 46 [0 0 ffff0008 0] ------- [0:42 -1:42 10 0] 
r 0.000764017 _5_ AGT  --- 2 message 46 [0 0 ffff0008 0] ------- [0:42 -1:42 10 0] 
r 0.000764017 _1_ AGT  --- 2 message 46 [0 0 ffff0008 0] ------- [0:42 -1:42 10 0] 
D 0.000764024 _6_ MAC  ERR 2 message 46 [0 0 ffff0008 0] ------- [0:42 -1:42 10 0] 
r 0.000764033 _10_ MAC  --- 2 message 46 [0 0 ffff0008 0] ------- [0:42 -1:42 10 0] 
D 0.000764033 _2_ MAC  ERR 2 message 46 [0 0 ffff0008 0] ------- [0:42 -1:42 10 0] 
r 0.000764033 _10_ AGT  --- 2 message 46 [0 0 ffff0008 0] ------- [0:42 -1:42 10 0] 
r 0.000764037 _11_ MAC  --- 2 message 46 [0 0 ffff0008 0] ------- [0:42 -1:42 10 0] 
r 0.000764037 _7_ MAC  --- 2 message 46 [0 0 ffff0008 0] ------- [0:42 -1:42 10 0] 
r 0.000764037 _11_ AGT  --- 2 message 46 [0 0 ffff0008 0] ------- [0:42 -1:42 10 0] 
r 0.000764037 _7_ AGT  --- 2 message 46 [0 0 ffff0008 0] ------- [0:42 -1:42 10 0] 
D 0.000764047 _12_ MAC  ERR 2 message 46 [0 0 ffff0008 0] ------- [0:42 -1:42 10 0] 
D 0.000764050 _15_ MAC  ERR 2 message 46 [0 0 ffff0008 0] ------- [0:42 -1:42 10 0] 
r 0.000764050 _3_ MAC  --- 2 message 46 [0 0 ffff0008 0] ------- [0:42 -1:42 10 0] 
r 0.000764050 _3_ AGT  --- 2 message 46 [0 0 ffff0008 0] ------- [0:42 -1:42 10 0] 
D 0.000764053 _16_ MAC  ERR 2 message 46 [0 0 ffff0008 0] ------- [0:42 -1:42 10 0] 
D 0.000764053 _8_ MAC  ERR 2 message 46 [0 0 ffff0008 0] ------- [0:42 -1:42 10 0] 
D 0.000764060 _17_ MAC  ERR 2 message 46 [0 0 ffff0008 0] ------- [0:42 -1:42 10 0] 
r 0.000764060 _13_ MAC  --- 2 message 46 [0 0 ffff0008 0] ------- [0:42 -1:42 10 0] 
r 0.000764060 _13_ AGT  --- 2 message 46 [0 0 ffff0008 0] ------- [0:42 -1:42 10 0] 
D 0.000764067 _20_ MAC  ERR 2 message 46 [0 0 ffff0008 0] ------- [0:42 -1:42 10 0] 
D 0.000764067 _4_ MAC  ERR 2 message 46 [0 0 ffff0008 0] ------- [0:42 -1:42 10 0] 
D 0.000764069 _21_ MAC  ERR 2 message 46 [0 0 ffff0008 0] ------- [0:42 -1:42 10 0] 
D 0.000764069 _9_ MAC  ERR 2 message 46 [0 0 ffff0008 0] ------- [0:42 -1:42 10 0] 
r 0.000764071 _18_ MAC  --- 2 message 46 [0 0 ffff0008 0] ------- [0:42 -1:42 10 0] 
r 0.000764071 _18_ AGT  --- 2 message 46 [0 0 ffff0008 0] ------- [0:42 -1:42 10 0] 
D 0.000764075 _22_ MAC  ERR 2 message 46 [0 0 ffff0008 0] ------- [0:42 -1:42 10 0] 
D 0.000764075 _14_ MAC  ERR 2 message 46 [0 0 ffff0008 0] ------- [0:42 -1:42 10 0] 
D 0.000764083 _23_ MAC  ERR 2 message 46 [0 0 ffff0008 0] ------- [0:42 -1:42 10 0] 
D 0.000764083 _19_ MAC  ERR 2 message 46 [0 0 ffff0008 0] ------- [0:42 -1:42 10 0] 
D 0.000764094 _24_ MAC  ERR 2 message 46 [0 0 ffff0008 0] ------- [0:42 -1:42 10 0] 
s 0.001858450 _18_ AGT  --- 2 message 46 [0 0 ffff0008 0] ------- [0:42 -1:42 9 0] 
s 0.001858450 _18_ MAC  --- 2 message 46 [0 12000000 ffff0008 0] ------- [0:42 -1:42 9 0] 
r 0.002226467 _13_ MAC  --- 2 message 46 [0 12000000 ffff0008 0] ------- [0:42 -1:42 9 0] 
r 0.002226467 _17_ MAC  --- 2 message 46 [0 12000000 ffff0008 0] ------- [0:42 -1:42 9 0] 
r 0.002226467 _23_ MAC  --- 2 message 46 [0 12000000 ffff0008 0] ------- [0:42 -1:42 9 0] 
r 0.002226467 _19_ MAC  --- 2 message 46 [0 12000000 ffff0008 0] ------- [0:42 -1:42 9 0] 
r 0.002226467 _13_ AGT  --- 2 message 46 [0 12000000 ffff0008 0] ------- [0:42 -1:42 9 0] 
r 0.002226467 _17_ AGT  --- 2 message 46 [0 12000000 ffff0008 0] ------- [0:42 -1:42 9 0] 
r 0.002226467 _23_ AGT  --- 2 message 46 [0 12000000 ffff0008 0] ------- [0:42 -1:42 9 0] 
r 0.002226467 _19_ AGT  --- 2 message 46 [0 12000000 ffff0008 0] ------- [0:42 -1:42 9 0] 
D 0.002226474 _22_ MAC  ERR 2 message 46 [0 12000000 ffff0008 0] ------- [0:42 -1:42 9 0] 
r 0.002226474 _12_ MAC  --- 2 message 46 [0 12000000 ffff0008 0] ------- [0:42 -1:42 9 0] 
D 0.002226474 _14_ MAC  ERR 2 message 46 [0 12000000 ffff0008 0] ------- [0:42 -1:42 9 0] 
r 0.002226474 _24_ MAC  --- 2 message 46 [0 12000000 ffff0008 0] ------- [0:42 -1:42 9 0] 
r 0.002226474 _12_ AGT  --- 2 message 46 [0 12000000 ffff0008 0] ------- [0:42 -1:42 9 0] 
r 0.002226474 _24_ AGT  --- 2 message 46 [0 12000000 ffff0008 0] ------- [0:42 -1:42 9 0] 
D 0.002226484 _8_ MAC  ERR 2 message 46 [0 12000000 ffff0008 0] ------- [0:42 -1:42 9 0] 
D 0.002226484 _16_ MAC  ERR 2 message 46 [0 12000000 ffff0008 0] ------- [0:42 -1:42 9 0] 
r 0.002226488 _7_ MAC  --- 2 message 46 [0 12000000 ffff0008 0] ------- [0:42 -1:42 9 0] 
D 0.002226488 _21_ MAC  ERR 2 message 46 [0 12000000 ffff0008 0] ------- [0:42 -1:42 9 0] 
r 0.002226488 _11_ MAC  --- 2 message 46 [0 12000000 ffff0008 0] ------- [0:42 -1:42 9 0] 
D 0.002226488 _9_ MAC  ERR 2 message 46 [0 12000000 ffff0008 0] ------- [0:42 -1:42 9 0] 
r 0.002226488 _7_ AGT  --- 2 message 46 [0 12000000 ffff0008 0] ------- [0:42 -1:42 9 0] 
r 0.002226488 _11_ AGT  --- 2 message 46 [0 12000000 ffff0008 0] ------- [0:42 -1:42 9 0] 
D 0.002226498 _6_ MAC  ERR 2 message 46 [0 12000000 ffff0008 0] ------- [0:42 -1:42 9 0] 
D 0.002226500 _3_ MAC  ERR 2 message 46 [0 12000000 ffff0008 0] ------- [0:42 -1:42 9 0] 
D 0.002226500 _15_ MAC  ERR 2 message 46 [0 12000000 ffff0008 0] ------- [0:42 -1:42 9 0] 
D 0.002226503 _2_ MAC  ERR 2 message 46 [0 12000000 ffff0008 0] ------- [0:42 -1:42 9 0] 
r 0.002226503 _20_ MAC  --- 2 message 46 [0 12000000 ffff0008 0] ------- [0:42 -1:42 9 0] 
D 0.002226503 _10_ MAC  ERR 2 message 46 [0 12000000 ffff0008 0] ------- [0:42 -1:42 9 0] 
D 0.002226503 _4_ MAC  ERR 2 message 46 [0 12000000 ffff0008 0] ------- [0:42 -1:42 9 0] 
r 0.002226503 _20_ AGT  --- 2 message 46 [0 12000000 ffff0008 0] ------- [0:42 -1:42 9 0] 
r 0.002226510 _1_ MAC  --- 2 message 46 [0 12000000 ffff0008 0] ------- [0:42 -1:42 9 0] 
D 0.002226510 _5_ MAC  ERR 2 message 46 [0 12000000 ffff0008 0] ------- [0:42 -1:42 9 0] 
r 0.002226510 _1_ AGT  --- 2 message 46 [0 12000000 ffff0008 0] ------- [0:42 -1:42 9 0] 
D 0.002226521 _0_ MAC  ERR 2 message 46 [0 12000000 ffff0008 0] ------- [0:42 -1:42 9 0] 
s 0.002514000 _0_ AGT  --- 4 message 46 [0 0 0 0] ------- [0:42 -1:42 10 0] 
s 0.002514000 _0_ MAC  --- 4 message 46 [0 0 ffff0008 0] ------- [0:42 -1:42 10 0] 
r 0.002882017 _5_ MAC  --- 4 message 46 [0 0 ffff0008 0] ------- [0:42 -1:42 10 0] 
r 0.002882017 _1_ MAC  --- 4 message 46 [0 0 ffff0008 0] ------- [0:42 -1:42 10 0] 
r 0.002882017 _5_ AGT  --- 4 message 46 [0 0 ffff0008 0] ------- [0:42 -1:42 10 0] 
r 0.002882017 _1_ AGT  --- 4 message 46 [0 0 ffff0008 0] ------- [0:42 -1:42 10 0] 
r 0.002882024 _6_ MAC  --- 4 message 46 [0 0 ffff0008 0] ------- [0:42 -1:42 10 0] 
r 0.002882024 _6_ AGT  --- 4 message 46 [0 0 ffff0008 0] ------- [0:42 -1:42 10 0] 
D 0.002882033 _10_ MAC  ERR 4 message 46 [0 0 ffff0008 0] ------- [0:42 -1:42 10 0] 
D 0.002882033 _2_ MAC  ERR 4 message 46 [0 0 ffff0008 0] ------- [0:42 -1:42 10 0] 
D 0.002882037 _11_ MAC  ERR 4 message 46 [0 0 ffff0008 0] ------- [0:42 -1:42 10 0] 
D 0.002882037 _7_ MAC  ERR 4 message 46 [0 0 ffff0008 0] ------- [0:42 -1:42 10 0] 
D 0.002882047 _12_ MAC  ERR 4 message 46 [0 0 ffff0008 0] ------- [0:42 -1:42 10 0] 
D 0.002882050 _15_ MAC  ERR 4 message 46 [0 0 ffff0008 0] ------- [0:42 -1:42 10 0] 
D 0.002882050 _3_ MAC  ERR 4 message 46 [0 0 ffff0008 0] ------- [0:42 -1:42 10 0] 
D 0.002882053 _16_ MAC  ERR 4 message 46 [0 0 ffff0008 0] ------- [0:42 -1:42 10 0] 
D 0.002882053 _8_ MAC  ERR 4 message 46 [0 0 ffff0008 0] ------- [0:42 -1:42 10 0] 
D 0.002882060 _17_ MAC  ERR 4 message 46 [0 0 ffff0008 0] ------- [0:42 -1:42 10 0] 
D 0.002882060 _13_ MAC  ERR 4 message 46 [0 0 ffff0008 0] ------- [0:42 -1:42 10 0] 
D 0.002882067 _20_ MAC  ERR 4 message 46 [0 0 ffff0008 0] ------- [0:42 -1:42 10 0] 
D 0.002882067 _4_ MAC  ERR 4 message 46 [0 0 ffff0008 0] ------- [0:42 -1:42 10 0] 
D 0.002882069 _21_ MAC  ERR 4 message 46 [0 0 ffff0008 0] ------- [0:42 -1:42 10 0] 
D 0.002882069 _9_ MAC  ERR 4 message 46 [0 0 ffff0008 0] ------- [0:42 -1:42 10 0] 
D 0.002882071 _18_ MAC  ERR 4 message 46 [0 0 ffff0008 0] ------- [0:42 -1:42 10 0] 
D 0.002882075 _22_ MAC  ERR 4 message 46 [0 0 ffff0008 0] ------- [0:42 -1:42 10 0] 
D 0.002882075 _14_ MAC  ERR 4 message 46 [0 0 ffff0008 0] ------- [0:42 -1:42 10 0] 
D 0.002882083 _23_ MAC  ERR 4 message 46 [0 0 ffff0008 0] ------- [0:42 -1:42 10 0] 
D 0.002882083 _19_ MAC  ERR 4 message 46 [0 0 ffff0008 0] ------- [0:42 -1:42 10 0] 
D 0.002882094 _24_ MAC  ERR 4 message 46 [0 0 ffff0008 0] ------- [0:42 -1:42 10 0] 
s 0.003112000 _0_ AGT  --- 0 message 46 [0 0 0 0] ------- [0:42 -1:42 10 0] 
s 0.003112000 _0_ MAC  --- 0 message 46 [0 0 ffff0008 0] ------- [0:42 -1:42 10 0] 
s 0.003268181 _19_ AGT  --- 2 message 46 [0 12000000 ffff0008 0] ------- [0:42 -1:42 8 0] 
r 0.003480017 _5_ MAC  --- 0 message 46 [0 0 ffff0008 0] ------- [0:42 -1:42 10 0] 
r 0.003480017 _1_ MAC  --- 0 message 46 [0 0 ffff0008 0] ------- [0:42 -1:42 10 0] 
r 0.003480017 _5_ AGT  --- 0 message 46 [0 0 ffff0008 0] ------- [0:42 -1:42 10 0] 
r 0.003480017 _1_ AGT  --- 0 message 46 [0 0 ffff0008 0] ------- [0:42 -1:42 10 0] 
D 0.003480024 _6_ MAC  ERR 0 message 46 [0 0 ffff0008 0] ------- [0:42 -1:42 10 0] 
D 0.003480033 _10_ MAC  ERR 0 message 46 [0 0 ffff0008 0] ------- [0:42 -1:42 10 0] 
D 0.003480033 _2_ MAC  ERR 0 message 46 [0 0 ffff0008 0] ------- [0:42 -1:42 10 0] 
r 0.003480037 _11_ MAC  --- 0 message 46 [0 0 ffff0008 0] ------- [0:42 -1:42 10 0] 
r 0.003480037 _7_ MAC  --- 0 message 46 [0 0 ffff0008 0] ------- [0:42 -1:42 10 0] 
r 0.003480037 _11_ AGT  --- 0 message 46 [0 0 ffff0008 0] ------- [0:42 -1:42 10 0] 
r 0.003480037 _7_ AGT  --- 0 message 46 [0 0 ffff0008 0] ------- [0:42 -1:42 10 0] 
D 0.003480047 _12_ MAC  ERR 0 message 46 [0 0 ffff0008 0] ------- [0:42 -1:42 10 0] 
D 0.003480050 _15_ MAC  ERR 0 message 46 [0 0 ffff0008 0] ------- [0:42 -1:42 10 0] 
D 0.003480050 _3_ MAC  ERR 0 message 46 [0 0 ffff0008 0] ------- [0:42 -1:42 10 0] 
D 0.003480053 _16_ MAC  ERR 0 message 46 [0 0 ffff0008 0] ------- [0:42 -1:42 10 0] 
r 0.003480053 _8_ MAC  --- 0 message 46 [0 0 ffff0008 0] ------- [0:42 -1:42 10 0] 
r 0.003480053 _8_ AGT  --- 0 message 46 [0 0 ffff0008 0] ------- [0:42 -1:42 10 0] 
D 0.003480060 _17_ MAC  ERR 0 message 46 [0 0 ffff0008 0] ------- [0:42 -1:42 10 0] 
D 0.003480060 _13_ MAC  ERR 0 message 46 [0 0 ffff0008 0] ------- [0:42 -1:42 10 0] 
D 0.003480067 _20_ MAC  ERR 0 message 46 [0 0 ffff0008 0] ------- [0:42 -1:42 10 0] 
D 0.003480067 _4_ MAC  ERR 0 message 46 [0 0 ffff0008 0] ------- [0:42 -1:42 10 0] 
r 0.003480069 _21_ MAC  --- 0 message 46 [0 0 ffff0008 0] ------- [0:42 -1:42 10 0] 
D 0.003480069 _9_ MAC  ERR 0 message 46 [0 0 ffff0008 0] ------- [0:42 -1:42 10 0] 
r 0.003480069 _21_ AGT  --- 0 message 46 [0 0 ffff0008 0] ------- [0:42 -1:42 10 0] 
D 0.003480071 _18_ MAC  ERR 0 message 46 [0 0 ffff0008 0] ------- [0:42 -1:42 10 0] 
D 0.003480075 _22_ MAC  ERR 0 message 46 [0 0 ffff0008 0] ------- [0:42 -1:42 10 0] 
D 0.003480075 _14_ MAC  ERR 0 message 46 [0 0 ffff0008 0] ------- [0:42 -1:42 10 0] 
D 0.003480083 _23_ MAC  ERR 0 message 46 [0 0 ffff0008 0] ------- [0:42 -1:42 10 0] 
D 0.003480083 _19_ MAC  ERR 0 message 46 [0 0 ffff0008 0] ------- [0:42 -1:42 10 0] 
D 0.003480094 _24_ MAC  ERR 0 message 46 [0 0 ffff0008 0] ------- [0:42 -1:42 10 0] 
s 0.003514000 _0_ AGT  --- 5 message 46 [0 0 0 0] ------- [0:42 -1:42 10 0] 
s 0.003514000 _0_ MAC  --- 5 message 46 [0 0 ffff0008 0] ------- [0:42 -1:42 10 0] 
s 0.003527475 _20_ AGT  --- 2 message 46 [0 12000000 ffff0008 0] ------- [0:42 -1:42 8 0] 
s 0.003636181 _19_ MAC  --- 2 message 46 [0 13000000 ffff0008 0] ------- [0:42 -1:42 8 0] 
r 0.003882017 _5_ MAC  --- 5 message 46 [0 0 ffff0008 0] ------- [0:42 -1:42 10 0] 
r 0.003882017 _1_ MAC  --- 5 message 46 [0 0 ffff0008 0] ------- [0:42 -1:42 10 0] 
r 0.003882017 _5_ AGT  --- 5 message 46 [0 0 ffff0008 0] ------- [0:42 -1:42 10 0] 
r 0.003882017 _1_ AGT  --- 5 message 46 [0 0 ffff0008 0] ------- [0:42 -1:42 10 0] 
s 0.003895475 _20_ MAC  --- 2 message 46 [0 14000000 ffff0008 0] ------- [0:42 -1:42 8 0] 
D 0.004004197 _14_ MAC  COL 2 message 46 [0 13000000 ffff0008 0] ------- [0:42 -1:42 8 0] 
D 0.004004228 _7_ MAC  COL 2 message 46 [0 13000000 ffff0008 0] ------- [0:42 -1:42 8 0] 
D 0.004004241 _2_ MAC  COL 2 message 46 [0 13000000 ffff0008 0] ------- [0:42 -1:42 8 0] 
D 0.004263491 _15_ MAC  COL 2 message 46 [0 14000000 ffff0008 0] ------- [0:42 -1:42 8 0] 
D 0.004263491 _21_ MAC  COL 2 message 46 [0 14000000 ffff0008 0] ------- [0:42 -1:42 8 0] 
D 0.004263498 _16_ MAC  COL 2 message 46 [0 14000000 ffff0008 0] ------- [0:42 -1:42 8 0] 
D 0.004263508 _10_ MAC  COL 2 message 46 [0 14000000 ffff0008 0] ------- [0:42 -1:42 8 0] 
D 0.004263508 _22_ MAC  COL 2 message 46 [0 14000000 ffff0008 0] ------- [0:42 -1:42 8 0] 
D 0.004263512 _11_ MAC  COL 2 message 46 [0 14000000 ffff0008 0] ------- [0:42 -1:42 8 0] 
D 0.004263512 _17_ MAC  COL 2 message 46 [0 14000000 ffff0008 0] ------- [0:42 -1:42 8 0] 
D 0.004263522 _12_ MAC  COL 2 message 46 [0 14000000 ffff0008 0] ------- [0:42 -1:42 8 0] 
D 0.004263525 _5_ MAC  ERR 2 message 46 [0 14000000 ffff0008 0] ------- [0:42 -1:42 8 0] 
D 0.004263525 _23_ MAC  COL 2 message 46 [0 14000000 ffff0008 0] ------- [0:42 -1:42 8 0] 
D 0.004263527 _6_ MAC  COL 2 message 46 [0 14000000 ffff0008 0] ------- [0:42 -1:42 8 0] 
D 0.004263527 _18_ MAC  COL 2 message 46 [0 14000000 ffff0008 0] ------- [0:42 -1:42 8 0] 
D 0.004263535 _13_ MAC  COL 2 message 46 [0 14000000 ffff0008 0] ------- [0:42 -1:42 8 0] 
D 0.004263541 _0_ MAC  COL 2 message 46 [0 14000000 ffff0008 0] ------- [0:42 -1:42 8 0] 
D 0.004263541 _24_ MAC  COL 2 message 46 [0 14000000 ffff0008 0] ------- [0:42 -1:42 8 0] 
D 0.004263543 _1_ MAC  ERR 2 message 46 [0 14000000 ffff0008 0] ------- [0:42 -1:42 8 0] 
D 0.004263543 _19_ MAC  ERR 2 message 46 [0 14000000 ffff0008 0] ------- [0:42 -1:42 8 0] 
D 0.004263545 _8_ MAC  COL 2 message 46 [0 14000000 ffff0008 0] ------- [0:42 -1:42 8 0] 
D 0.004263558 _3_ MAC  COL 2 message 46 [0 14000000 ffff0008 0] ------- [0:42 -1:42 8 0] 
D 0.004263558 _9_ MAC  COL 2 message 46 [0 14000000 ffff0008 0] ------- [0:42 -1:42 8 0] 
D 0.004263569 _4_ MAC  COL 2 message 46 [0 14000000 ffff0008 0] ------- [0:42 -1:42 8 0] 
s 0.004650268 _24_ AGT  --- 2 message 46 [0 12000000 ffff0008 0] ------- [0:42 -1:42 8 0] 
s 0.004650268 _24_ MAC  --- 2 message 46 [0 18000000 ffff0008 0] ------- [0:42 -1:42 8 0] 
s 0.004909000 _0_ AGT  --- 8 message 46 [0 0 0 0] ------- [0:42 -1:42 10 0] 
r 0.005018285 _19_ MAC  --- 2 message 46 [0 18000000 ffff0008 0] ------- [0:42 -1:42 8 0] 
r 0.005018285 _23_ MAC  --- 2 message 46 [0 18000000 ffff0008 0] ------- [0:42 -1:42 8 0] 
r 0.005018285 _19_ AGT  --- 2 message 46 [0 18000000 ffff0008 0] ------- [0:42 -1:42 8 0] 
r 0.005018285 _23_ AGT  --- 2 message 46 [0 18000000 ffff0008 0] ------- [0:42 -1:42 8 0] 
D 0.005018292 _18_ MAC  ERR 2 message 46 [0 18000000 ffff0008 0] ------- [0:42 -1:42 8 0] 
r 0.005018302 _14_ MAC  --- 2 message 46 [0 18000000 ffff0008 0] ------- [0:42 -1:42 8 0] 
r 0.005018302 _22_ MAC  --- 2 message 46 [0 18000000 ffff0008 0] ------- [0:42 -1:42 8 0] 
r 0.005018302 _14_ AGT  --- 2 message 46 [0 18000000 ffff0008 0] ------- [0:42 -1:42 8 0] 
r 0.005018302 _22_ AGT  --- 2 message 46 [0 18000000 ffff0008 0] ------- [0:42 -1:42 8 0] 
D 0.005018306 _13_ MAC  ERR 2 message 46 [0 18000000 ffff0008 0] ------- [0:42 -1:42 8 0] 
D 0.005018306 _17_ MAC  ERR 2 message 46 [0 18000000 ffff0008 0] ------- [0:42 -1:42 8 0] 
D 0.005018315 _12_ MAC  ERR 2 message 46 [0 18000000 ffff0008 0] ------- [0:42 -1:42 8 0] 
D 0.005018318 _9_ MAC  ERR 2 message 46 [0 18000000 ffff0008 0] ------- [0:42 -1:42 8 0] 
D 0.005018318 _21_ MAC  ERR 2 message 46 [0 18000000 ffff0008 0] ------- [0:42 -1:42 8 0] 
D 0.005018321 _8_ MAC  ERR 2 message 46 [0 18000000 ffff0008 0] ------- [0:42 -1:42 8 0] 
D 0.005018321 _16_ MAC  ERR 2 message 46 [0 18000000 ffff0008 0] ------- [0:42 -1:42 8 0] 
D 0.005018328 _7_ MAC  ERR 2 message 46 [0 18000000 ffff0008 0] ------- [0:42 -1:42 8 0] 
D 0.005018328 _11_ MAC  ERR 2 message 46 [0 18000000 ffff0008 0] ------- [0:42 -1:42 8 0] 
D 0.005018335 _4_ MAC  ERR 2 message 46 [0 18000000 ffff0008 0] ------- [0:42 -1:42 8 0] 
r 0.005018335 _20_ MAC  --- 2 message 46 [0 18000000 ffff0008 0] ------- [0:42 -1:42 8 0] 
r 0.005018335 _20_ AGT  --- 2 message 46 [0 18000000 ffff0008 0] ------- [0:42 -1:42 8 0] 
D 0.005018337 _3_ MAC  ERR 2 message 46 [0 18000000 ffff0008 0] ------- [0:42 -1:42 8 0] 
D 0.005018337 _15_ MAC  ERR 2 message 46 [0 18000000 ffff0008 0] ------- [0:42 -1:42 8 0] 
D 0.005018339 _6_ MAC  ERR 2 message 46 [0 18000000 ffff0008 0] ------- [0:42 -1:42 8 0] 
D 0.005018343 _2_ MAC  ERR 2 message 46 [0 18000000 ffff0008 0] ------- [0:42 -1:42 8 0] 
r 0.005018343 _10_ MAC  --- 2 message 46 [0 18000000 ffff0008 0] ------- [0:42 -1:42 8 0] 
r 0.005018343 _10_ AGT  --- 2 message 46 [0 18000000 ffff0008 0] ------- [0:42 -1:42 8 0] 
D 0.005018352 _1_ MAC  ERR 2 message 46 [0 18000000 ffff0008 0] ------- [0:42 -1:42 8 0] 
D 0.005018352 _5_ MAC  ERR 2 message 46 [0 18000000 ffff0008 0] ------- [0:42 -1:42 8 0] 
D 0.005018363 _0_ MAC  ERR 2 message 46 [0 18000000 ffff0008 0] ------- [0:42 -1:42 8 0] 
s 0.005171605 _22_ AGT  --- 2 message 46 [0 18000000 ffff0008 0] ------- [0:42 -1:42 7 0] 
s 0.005171605 _22_ MAC  --- 2 message 46 [0 16000000 ffff0008 0] ------- [0:42 -1:42 7 0] 
s 0.005178466 _10_ AGT  --- 2 message 46 [0 0 ffff0008 0] ------- [0:42 -1:42 9 0] 
s 0.005267819 _21_ AGT  --- 0 message 46 [0 0 ffff0008 0] ------- [0:42 -1:42 9 0] 
s 0.005277000 _0_ MAC  --- 8 message 46 [0 0 ffff0008 0] ------- [0:42 -1:42 10 0] 
r 0.005539622 _23_ MAC  --- 2 message 46 [0 16000000 ffff0008 0] ------- [0:42 -1:42 7 0] 
r 0.005539622 _23_ AGT  --- 2 message 46 [0 16000000 ffff0008 0] ------- [0:42 -1:42 7 0] 
r 0.005539629 _18_ MAC  --- 2 message 46 [0 16000000 ffff0008 0] ------- [0:42 -1:42 7 0] 
r 0.005539629 _18_ AGT  --- 2 message 46 [0 16000000 ffff0008 0] ------- [0:42 -1:42 7 0] 
s 0.005546466 _10_ MAC  --- 2 message 46 [0 a000000 ffff0008 0] ------- [0:42 -1:42 9 0] 
s 0.005592125 _1_ AGT  --- 2 message 46 [0 0 ffff0008 0] ------- [0:42 -1:42 9 0] 
s 0.005635819 _21_ MAC  --- 0 message 46 [0 15000000 ffff0008 0] ------- [0:42 -1:42 9 0] 
D 0.005914503 _1_ MAC  COL 2 message 46 [0 a000000 ffff0008 0] ------- [0:42 -1:42 9 0] 
s 0.005960125 _1_ MAC  --- 2 message 46 [0 1000000 ffff0008 0] ------- [0:42 -1:42 9 0] 
s 0.005975608 _1_ AGT  --- 0 message 46 [0 0 ffff0008 0] ------- [0:42 -1:42 9 0] 
D 0.006003842 _15_ MAC  COL 0 message 46 [0 15000000 ffff0008 0] ------- [0:42 -1:42 9 0] 
D 0.006003842 _17_ MAC  COL 0 message 46 [0 15000000 ffff0008 0] ------- [0:42 -1:42 9 0] 
s 0.006067000 _0_ AGT  --- 7 message 46 [0 0 0 0] ------- [0:42 -1:42 10 0] 
s 0.006204000 _0_ AGT  --- 6 message 46 [0 0 0 0] ------- [0:42 -1:42 10 0] 
s 0.006328125 _1_ MAC  --- 0 message 46 [0 1000000 ffff0008 0] ------- [0:42 -1:42 9 0] 
s 0.006435000 _0_ MAC  --- 7 message 46 [0 0 ffff0008 0] ------- [0:42 -1:42 10 0] 
s 0.006451000 _0_ AGT  --- 1 message 46 [0 0 0 0] ------- [0:42 -1:42 10 0] 
s 0.006453086 _7_ AGT  --- 2 message 46 [0 0 ffff0008 0] ------- [0:42 -1:42 9 0] 
s 0.006686035 _5_ AGT  --- 2 message 46 [0 0 ffff0008 0] ------- [0:42 -1:42 9 0] 
D 0.006696141 _2_ MAC  COL 0 message 46 [0 1000000 ffff0008 0] ------- [0:42 -1:42 9 0] 
D 0.006696158 _3_ MAC  COL 0 message 46 [0 1000000 ffff0008 0] ------- [0:42 -1:42 9 0] 
D 0.006696172 _13_ MAC  COL 0 message 46 [0 1000000 ffff0008 0] ------- [0:42 -1:42 9 0] 
D 0.006696195 _19_ MAC  COL 0 message 46 [0 1000000 ffff0008 0] ------- [0:42 -1:42 9 0] 
s 0.006803000 _0_ MAC  --- 6 message 46 [0 0 ffff0008 0] ------- [0:42 -1:42 10 0] 
s 0.006803000 _0_ MAC  --- 1 message 46 [0 0 ffff0008 0] ------- [0:42 -1:42 10 0] 
s 0.006821086 _7_ MAC  --- 2 message 46 [0 7000000 ffff0008 0] ------- [0:42 -1:42 9 0] 
s 0.006989764 _12_ AGT  --- 2 message 46 [0 12000000 ffff0008 0] ------- [0:42 -1:42 8 0] 
s 0.007054035 _5_ MAC  --- 2 message 46 [0 5000000 ffff0008 0] ------- [0:42 -1:42 9 0] 
D 0.007189103 _12_ MAC  COL 2 message 46 [0 7000000 ffff0008 0] ------- [0:42 -1:42 9 0] 
D 0.007189103 _8_ MAC  COL 2 message 46 [0 7000000 ffff0008 0] ------- [0:42 -1:42 9 0] 
s 0.007357764 _12_ MAC  --- 2 message 46 [0 c000000 ffff0008 0] ------- [0:42 -1:42 8 0] 
s 0.007388405 _1_ AGT  --- 5 message 46 [0 0 ffff0008 0] ------- [0:42 -1:42 9 0] 
D 0.007422052 _10_ MAC  COL 2 message 46 [0 5000000 ffff0008 0] ------- [0:42 -1:42 9 0] 
s 0.007677000 _0_ AGT  --- 3 message 46 [0 0 0 0] ------- [0:42 -1:42 10 0] 
D 0.007725781 _7_ MAC  COL 2 message 46 [0 c000000 ffff0008 0] ------- [0:42 -1:42 8 0] 
D 0.007725781 _11_ MAC  COL 2 message 46 [0 c000000 ffff0008 0] ------- [0:42 -1:42 8 0] 
D 0.007725781 _17_ MAC  COL 2 message 46 [0 c000000 ffff0008 0] ------- [0:42 -1:42 8 0] 
D 0.007725781 _13_ MAC  COL 2 message 46 [0 c000000 ffff0008 0] ------- [0:42 -1:42 8 0] 
D 0.007725788 _16_ MAC  COL 2 message 46 [0 c000000 ffff0008 0] ------- [0:42 -1:42 8 0] 
D 0.007725788 _6_ MAC  COL 2 message 46 [0 c000000 ffff0008 0] ------- [0:42 -1:42 8 0] 
r 0.007725788 _8_ MAC  --- 2 message 46 [0 c000000 ffff0008 0] ------- [0:42 -1:42 8 0] 
D 0.007725788 _18_ MAC  COL 2 message 46 [0 c000000 ffff0008 0] ------- [0:42 -1:42 8 0] 
r 0.007725788 _8_ AGT  --- 2 message 46 [0 c000000 ffff0008 0] ------- [0:42 -1:42 8 0] 
D 0.007725798 _2_ MAC  COL 2 message 46 [0 c000000 ffff0008 0] ------- [0:42 -1:42 8 0] 
D 0.007725798 _22_ MAC  COL 2 message 46 [0 c000000 ffff0008 0] ------- [0:42 -1:42 8 0] 
D 0.007725798 _14_ MAC  COL 2 message 46 [0 c000000 ffff0008 0] ------- [0:42 -1:42 8 0] 
D 0.007725802 _21_ MAC  COL 2 message 46 [0 c000000 ffff0008 0] ------- [0:42 -1:42 8 0] 
D 0.007725802 _1_ MAC  COL 2 message 46 [0 c000000 ffff0008 0] ------- [0:42 -1:42 8 0] 
D 0.007725802 _15_ MAC  COL 2 message 46 [0 c000000 ffff0008 0] ------- [0:42 -1:42 8 0] 
D 0.007725802 _5_ MAC  ERR 2 message 46 [0 c000000 ffff0008 0] ------- [0:42 -1:42 8 0] 
D 0.007725802 _3_ MAC  COL 2 message 46 [0 c000000 ffff0008 0] ------- [0:42 -1:42 8 0] 
D 0.007725802 _23_ MAC  COL 2 message 46 [0 c000000 ffff0008 0] ------- [0:42 -1:42 8 0] 
D 0.007725802 _9_ MAC  COL 2 message 46 [0 c000000 ffff0008 0] ------- [0:42 -1:42 8 0] 
D 0.007725802 _19_ MAC  COL 2 message 46 [0 c000000 ffff0008 0] ------- [0:42 -1:42 8 0] 
D 0.007725812 _20_ MAC  COL 2 message 46 [0 c000000 ffff0008 0] ------- [0:42 -1:42 8 0] 
D 0.007725812 _0_ MAC  COL 2 message 46 [0 c000000 ffff0008 0] ------- [0:42 -1:42 8 0] 
D 0.007725812 _4_ MAC  COL 2 message 46 [0 c000000 ffff0008 0] ------- [0:42 -1:42 8 0] 
D 0.007725812 _24_ MAC  COL 2 message 46 [0 c000000 ffff0008 0] ------- [0:42 -1:42 8 0] 
s 0.007756405 _1_ MAC  --- 5 message 46 [0 1000000 ffff0008 0] ------- [0:42 -1:42 9 0] 
s 0.007798339 _13_ AGT  --- 2 message 46 [0 0 ffff0008 0] ------- [0:42 -1:42 9 0] 
s 0.008045000 _0_ MAC  --- 3 message 46 [0 0 ffff0008 0] ------- [0:42 -1:42 10 0] 
r 0.008124422 _2_ MAC  --- 5 message 46 [0 1000000 ffff0008 0] ------- [0:42 -1:42 9 0] 
r 0.008124422 _2_ AGT  --- 5 message 46 [0 1000000 ffff0008 0] ------- [0:42 -1:42 9 0] 
r 0.008124429 _7_ MAC  --- 5 message 46 [0 1000000 ffff0008 0] ------- [0:42 -1:42 9 0] 
r 0.008124429 _7_ AGT  --- 5 message 46 [0 1000000 ffff0008 0] ------- [0:42 -1:42 9 0] 
r 0.008124466 _18_ MAC  --- 5 message 46 [0 1000000 ffff0008 0] ------- [0:42 -1:42 9 0] 
r 0.008124466 _18_ AGT  --- 5 message 46 [0 1000000 ffff0008 0] ------- [0:42 -1:42 9 0] 
s 0.008166339 _13_ MAC  --- 2 message 46 [0 d000000 ffff0008 0] ------- [0:42 -1:42 9 0] 
D 0.008413017 _5_ MAC  COL 3 message 46 [0 0 ffff0008 0] ------- [0:42 -1:42 10 0] 
D 0.008413017 _1_ MAC  ERR 3 message 46 [0 0 ffff0008 0] ------- [0:42 -1:42 10 0] 
D 0.008534356 _8_ MAC  COL 2 message 46 [0 d000000 ffff0008 0] ------- [0:42 -1:42 9 0] 
D 0.008534356 _12_ MAC  COL 2 message 46 [0 d000000 ffff0008 0] ------- [0:42 -1:42 9 0] 
D 0.008534356 _18_ MAC  ERR 2 message 46 [0 d000000 ffff0008 0] ------- [0:42 -1:42 9 0] 
D 0.008534356 _14_ MAC  COL 2 message 46 [0 d000000 ffff0008 0] ------- [0:42 -1:42 9 0] 
D 0.008534363 _17_ MAC  COL 2 message 46 [0 d000000 ffff0008 0] ------- [0:42 -1:42 9 0] 
D 0.008534363 _7_ MAC  ERR 2 message 46 [0 d000000 ffff0008 0] ------- [0:42 -1:42 9 0] 
D 0.008534363 _9_ MAC  COL 2 message 46 [0 d000000 ffff0008 0] ------- [0:42 -1:42 9 0] 
D 0.008534363 _19_ MAC  COL 2 message 46 [0 d000000 ffff0008 0] ------- [0:42 -1:42 9 0] 
D 0.008534372 _3_ MAC  COL 2 message 46 [0 d000000 ffff0008 0] ------- [0:42 -1:42 9 0] 
D 0.008534372 _11_ MAC  COL 2 message 46 [0 d000000 ffff0008 0] ------- [0:42 -1:42 9 0] 
D 0.008534372 _23_ MAC  COL 2 message 46 [0 d000000 ffff0008 0] ------- [0:42 -1:42 9 0] 
D 0.008534376 _22_ MAC  COL 2 message 46 [0 d000000 ffff0008 0] ------- [0:42 -1:42 9 0] 
D 0.008534376 _2_ MAC  ERR 2 message 46 [0 d000000 ffff0008 0] ------- [0:42 -1:42 9 0] 
D 0.008534376 _16_ MAC  COL 2 message 46 [0 d000000 ffff0008 0] ------- [0:42 -1:42 9 0] 
D 0.008534376 _6_ MAC  COL 2 message 46 [0 d000000 ffff0008 0] ------- [0:42 -1:42 9 0] 
D 0.008534376 _4_ MAC  COL 2 message 46 [0 d000000 ffff0008 0] ------- [0:42 -1:42 9 0] 
D 0.008534376 _24_ MAC  COL 2 message 46 [0 d000000 ffff0008 0] ------- [0:42 -1:42 9 0] 
D 0.008534386 _21_ MAC  COL 2 message 46 [0 d000000 ffff0008 0] ------- [0:42 -1:42 9 0] 
D 0.008534389 _10_ MAC  COL 2 message 46 [0 d000000 ffff0008 0] ------- [0:42 -1:42 9 0] 
D 0.008534392 _15_ MAC  COL 2 message 46 [0 d000000 ffff0008 0] ------- [0:42 -1:42 9 0] 
D 0.008534399 _20_ MAC  COL 2 message 46 [0 d000000 ffff0008 0] ------- [0:42 -1:42 9 0] 
D 0.008534399 _0_ MAC  ERR 2 message 46 [0 d000000 ffff0008 0] ------- [0:42 -1:42 9 0] 
s 0.008819000 _0_ AGT  --- 9 message 46 [0 0 0 0] ------- [0:42 -1:42 10 0] 
s 0.008819000 _0_ MAC  --- 9 message 46 [0 0 ffff0008 0] ------- [0:42 -1:42 10 0] 
s 0.009062341 _8_ AGT  --- 0 message 46 [0 0 ffff0008 0] ------- [0:42 -1:42 9 0] 
r 0.009187017 _5_ MAC  --- 9 message 46 [0 0 ffff0008 0] ------- [0:42 -1:42 10 0] 
r 0.009187017 _1_ MAC  --- 9 message 46 [0 0 ffff0008 0] ------- [0:42 -1:42 10 0] 
r 0.009187017 _5_ AGT  --- 9 message 46 [0 0 ffff0008 0] ------- [0:42 -1:42 10 0] 
r 0.009187017 _1_ AGT  --- 9 message 46 [0 0 ffff0008 0] ------- [0:42 -1:42 10 0] 
r 0.009187024 _6_ MAC  --- 9 message 46 [0 0 ffff0008 0] ------- [0:42 -1:42 10 0] 
r 0.009187024 _6_ AGT  --- 9 message 46 [0 0 ffff0008 0] ------- [0:42 -1:42 10 0] 
D 0.009187033 _10_ MAC  ERR 9 message 46 [0 0 ffff0008 0] ------- [0:42 -1:42 10 0] 
r 0.009187033 _2_ MAC  --- 9 message 46 [0 0 ffff0008 0] ------- [0:42 -1:42 10 0] 
r 0.009187033 _2_ AGT  --- 9 message 46 [0 0 ffff0008 0] ------- [0:42 -1:42 10 0] 
D 0.009187037 _11_ MAC  ERR 9 message 46 [0 0 ffff0008 0] ------- [0:42 -1:42 10 0] 
D 0.009187037 _7_ MAC  ERR 9 message 46 [0 0 ffff0008 0] ------- [0:42 -1:42 10 0] 
r 0.009187047 _12_ MAC  --- 9 message 46 [0 0 ffff0008 0] ------- [0:42 -1:42 10 0] 
r 0.009187047 _12_ AGT  --- 9 message 46 [0 0 ffff0008 0] ------- [0:42 -1:42 10 0] 
D 0.009187050 _15_ MAC  ERR 9 message 46 [0 0 ffff0008 0] ------- [0:42 -1:42 10 0] 
D 0.009187050 _3_ MAC  ERR 9 message 46 [0 0 ffff0008 0] ------- [0:42 -1:42 10 0] 
r 0.009187053 _16_ MAC  --- 9 message 46 [0 0 ffff0008 0] ------- [0:42 -1:42 10 0] 
D 0.009187053 _8_ MAC  ERR 9 message 46 [0 0 ffff0008 0] ------- [0:42 -1:42 10 0] 
r 0.009187053 _16_ AGT  --- 9 message 46 [0 0 ffff0008 0] ------- [0:42 -1:42 10 0] 
D 0.009187060 _17_ MAC  ERR 9 message 46 [0 0 ffff0008 0] ------- [0:42 -1:42 10 0] 
D 0.009187060 _13_ MAC  ERR 9 message 46 [0 0 ffff0008 0] ------- [0:42 -1:42 10 0] 
D 0.009187067 _20_ MAC  ERR 9 message 46 [0 0 ffff0008 0] ------- [0:42 -1:42 10 0] 
D 0.009187067 _4_ MAC  ERR 9 message 46 [0 0 ffff0008 0] ------- [0:42 -1:42 10 0] 
D 0.009187069 _21_ MAC  ERR 9 message 46 [0 0 ffff0008 0] ------- [0:42 -1:42 10 0] 
D 0.009187069 _9_ MAC  ERR 9 message 46 [0 0 ffff0008 0] ------- [0:42 -1:42 10 0] 
r 0.009187071 _18_ MAC  --- 9 message 46 [0 0 ffff0008 0] ------- [0:42 -1:42 10 0] 
r 0.009187071 _18_ AGT  --- 9 message 46 [0 0 ffff0008 0] ------- [0:42 -1:42 10 0] 
D 0.009187075 _22_ MAC  ERR 9 message 46 [0 0 ffff0008 0] ------- [0:42 -1:42 10 0] 
D 0.009187075 _14_ MAC  ERR 9 message 46 [0 0 ffff0008 0] ------- [0:42 -1:42 10 0] 
D 0.009187083 _23_ MAC  ERR 9 message 46 [0 0 ffff0008 0] ------- [0:42 -1:42 10 0] 
D 0.009187083 _19_ MAC  ERR 9 message 46 [0 0 ffff0008 0] ------- [0:42 -1:42 10 0] 
D 0.009187094 _24_ MAC  ERR 9 message 46 [0 0 ffff0008 0] ------- [0:42 -1:42 10 0] 
s 0.009210487 _3_ AGT  --- 2 message 46 [0 0 ffff0008 0] ------- [0:42 -1:42 9 0] 
s 0.009210487 _3_ MAC  --- 2 message 46 [0 3000000 ffff0008 0] ------- [0:42 -1:42 9 0] 
s 0.009430341 _8_ MAC  --- 0 message 46 [0 8000000 ffff0008 0] ------- [0:42 -1:42 9 0] 
r 0.009798357 _3_ MAC  --- 0 message 46 [0 8000000 ffff0008 0] ------- [0:42 -1:42 9 0] 
D 0.009798357 _7_ MAC  COL 0 message 46 [0 8000000 ffff0008 0] ------- [0:42 -1:42 9 0] 
D 0.009798357 _13_ MAC  COL 0 message 46 [0 8000000 ffff0008 0] ------- [0:42 -1:42 9 0] 
D 0.009798357 _9_ MAC  COL 0 message 46 [0 8000000 ffff0008 0] ------- [0:42 -1:42 9 0] 
r 0.009798357 _3_ AGT  --- 0 message 46 [0 8000000 ffff0008 0] ------- [0:42 -1:42 9 0] 
D 0.009798364 _12_ MAC  COL 0 message 46 [0 8000000 ffff0008 0] ------- [0:42 -1:42 9 0] 
D 0.009798364 _2_ MAC  COL 0 message 46 [0 8000000 ffff0008 0] ------- [0:42 -1:42 9 0] 
D 0.009798364 _4_ MAC  COL 0 message 46 [0 8000000 ffff0008 0] ------- [0:42 -1:42 9 0] 
D 0.009798364 _14_ MAC  COL 0 message 46 [0 8000000 ffff0008 0] ------- [0:42 -1:42 9 0] 
D 0.009798374 _6_ MAC  COL 0 message 46 [0 8000000 ffff0008 0] ------- [0:42 -1:42 9 0] 
D 0.009798374 _18_ MAC  COL 0 message 46 [0 8000000 ffff0008 0] ------- [0:42 -1:42 9 0] 