s 0.000000000 _1_ AGT  --- 1 message 209 [0 0 0 0] ------- [1:42 -1:42 10 0] 
s 0.027815001 _1_ MAC  --- 1 message 209 [0 1000000 ffff0008 0] ------- [1:42 -1:42 10 0] 
r 0.028154005 _0_ MAC  --- 1 message 209 [0 1000000 ffff0008 0] ------- [1:42 -1:42 10 0] 
r 0.028154005 _0_ AGT  --- 1 message 209 [0 1000000 ffff0008 0] ------- [1:42 -1:42 10 0] 
s 0.080000000 _1_ AGT  --- 3 message 209 [0 0 0 0] ------- [1:42 -1:42 10 0] 
s 0.100618530 _1_ MAC  --- 3 message 209 [0 1000000 ffff0008 0] ------- [1:42 -1:42 10 0] 
r 0.100957533 _0_ MAC  --- 3 message 209 [0 1000000 ffff0008 0] ------- [1:42 -1:42 10 0] 
r 0.100957533 _0_ AGT  --- 3 message 209 [0 1000000 ffff0008 0] ------- [1:42 -1:42 10 0] 
s 0.160000000 _1_ AGT  --- 5 message 209 [0 0 0 0] ------- [1:42 -1:42 10 0] 
s 0.166442630 _1_ MAC  --- 5 message 209 [0 1000000 ffff0008 0] ------- [1:42 -1:42 10 0] 
r 0.166781633 _0_ MAC  --- 5 message 209 [0 1000000 ffff0008 0] ------- [1:42 -1:42 10 0] 
r 0.166781633 _0_ AGT  --- 5 message 209 [0 1000000 ffff0008 0] ------- [1:42 -1:42 10 0] 
s 0.240000000 _1_ AGT  --- 7 message 209 [0 0 0 0] ------- [1:42 -1:42 10 0] 
s 0.250507789 _1_ MAC  --- 7 message 209 [0 1000000 ffff0008 0] ------- [1:42 -1:42 10 0] 
r 0.250846792 _0_ MAC  --- 7 message 209 [0 1000000 ffff0008 0] ------- [1:42 -1:42 10 0] 
r 0.250846792 _0_ AGT  --- 7 message 209 [0 1000000 ffff0008 0] ------- [1:42 -1:42 10 0] 
s 0.320000000 _1_ AGT  --- 9 message 209 [0 0 0 0] ------- [1:42 -1:42 10 0] 
s 0.326148788 _1_ MAC  --- 9 message 209 [0 1000000 ffff0008 0] ------- [1:42 -1:42 10 0] 
r 0.326487791 _0_ MAC  --- 9 message 209 [0 1000000 ffff0008 0] ------- [1:42 -1:42 10 0] 
r 0.326487791 _0_ AGT  --- 9 message 209 [0 1000000 ffff0008 0] ------- [1:42 -1:42 10 0] 
s 0.400000000 _1_ AGT  --- 11 message 209 [0 0 0 0] ------- [1:42 -1:42 10 0] 
s 0.418469122 _1_ MAC  --- 11 message 209 [0 1000000 ffff0008 0] ------- [1:42 -1:42 10 0] 
r 0.418808125 _0_ MAC  --- 11 message 209 [0 1000000 ffff0008 0] ------- [1:42 -1:42 10 0] 
r 0.418808125 _0_ AGT  --- 11 message 209 [0 1000000 ffff0008 0] ------- [1:42 -1:42 10 0] 
s 0.480000000 _1_ AGT  --- 13 message 209 [0 0 0 0] ------- [1:42 -1:42 10 0] 
s 0.497890598 _1_ MAC  --- 13 message 209 [0 1000000 ffff0008 0] ------- [1:42 -1:42 10 0] 
r 0.498229601 _0_ MAC  --- 13 message 209 [0 1000000 ffff0008 0] ------- [1:42 -1:42 10 0] 
r 0.498229601 _0_ AGT  --- 13 message 209 [0 1000000 ffff0008 0] ------- [1:42 -1:42 10 0] 
s 0.560000000 _1_ AGT  --- 15 message 209 [0 0 0 0] ------- [1:42 -1:42 10 0] 
s 0.571049697 _1_ MAC  --- 15 message 209 [0 1000000 ffff0008 0] ------- [1:42 -1:42 10 0] 
r 0.571388701 _0_ MAC  --- 15 message 209 [0 1000000 ffff0008 0] ------- [1:42 -1:42 10 0] 
r 0.571388701 _0_ AGT  --- 15 message 209 [0 1000000 ffff0008 0] ------- [1:42 -1:42 10 0] 
s 0.640000000 _1_ AGT  --- 17 message 209 [0 0 0 0] ------- [1:42 -1:42 10 0] 
s 0.642118605 _1_ MAC  --- 17 message 209 [0 1000000 ffff0008 0] ------- [1:42 -1:42 10 0] 
r 0.642457608 _0_ MAC  --- 17 message 209 [0 1000000 ffff0008 0] ------- [1:42 -1:42 10 0] 
r 0.642457608 _0_ AGT  --- 17 message 209 [0 1000000 ffff0008 0] ------- [1:42 -1:42 10 0] 
s 0.720000000 _1_ AGT  --- 19 message 209 [0 0 0 0] ------- [1:42 -1:42 10 0] 
s 0.723839184 _1_ MAC  --- 19 message 209 [0 1000000 ffff0008 0] ------- [1:42 -1:42 10 0] 
r 0.724178188 _0_ MAC  --- 19 message 209 [0 1000000 ffff0008 0] ------- [1:42 -1:42 10 0] 
r 0.724178188 _0_ AGT  --- 19 message 209 [0 1000000 ffff0008 0] ------- [1:42 -1:42 10 0] 
